      -----------------------------------------------------------      
     |                   =====================                   |     
     |                           x T B                           |     
     |                   =====================                   |     
     |                         S. Grimme                         |     
     |          Mulliken Center for Theoretical Chemistry        |     
     |                    University of Bonn                     |     
     |                 Version 6.0.1 (SAW181210)                 |     
      -----------------------------------------------------------      

   This program is distributed in the hope that it will be useful,
   but WITHOUT ANY WARRANTY; without even the implied warranty of
   MERCHANTABILITY or FITNESS FOR A PARTICULAR PURPOSE.
   
   FOR NON-COMMERCIAL, ACADEMIA USE ONLY.
   
   Cite this work as:
   S. Grimme, C. Bannwarth, P. Shushkov, J. Comput. Theory Chem., 2017,
   13, 1989-2009.
   C. Bannwarth, S. Ehlert and S. Grimme., ChemRxiv, 2018, preprint.
   http://doi.org/10.26434/chemrxiv.7246238.v1
   
   for sTDA-xTB:
   S. Grimme and C. Bannwarth, J. Chem. Phys., 2016, 145, 054103.
   
   in the mass-spec context:
   V. Asgeirsson, C. Bauer and S. Grimme, Chem. Sci., 2017, 8, 4879.
   
   if GBSA is used:
   P. Shushkov, F. März and S. Grimme, unpublished.
   
   for ANC optimizer:
   S. Grimme, unpublished.
   Rational Function algorithm used in ANCopt:
   F. Eckert, P. Pulay, H.-J. Werner, J. Comput. Chem., 1997, 18, 1473.
   
   with help from (in alphabetical order)
   C. Bannwarth, F. Bohle, G. Brandenburg, E. Caldeweyher, M. Checinski,
   S. Dohm, S. Ehlert, S. Ehrlich, F. März, H. Neugebauer, J. Pisarek,
   P. Pracht, P. Shushkov, and S. Spicher.
   
 * started run on 2019/03/17 at 19:22:36.669     
========================================================================
 # omp threads = 12
========================================================================
number of atoms            : 226
number of electrons        : 616
charge                     : 2
spin                       : .0
first test random number   : .6329

########################################################################
# WARNING! Please study the warnings concerning your input carefully
#  - XTBPATH is not set, using XTBHOME instead
#  - Process number higher than OMP_NUM_THREADS, I hope you know what you are doing.
########################################################################

           ------------------------------------------------- 
          |                 G F N 2 - x T B                 |
          | Geometry, Frequencies, Noncovalent interactions |
          |            JCTC 2018 parametrisation            |
           ------------------------------------------------- 
 
      method parameters     
 k(s)        :  1.8500
 k(p)        :  2.2300
 k(d)        :  2.2300
 k(f)        :  2.0000
 kEN (H0ij)  : -2.0000
 D4 a1       :  0.5200
 D4 a2       :  5.0000
 D4 s6       :  1.0000
 D4 s8       :  2.7000
 D4 s9       :  5.0000
 alphaj      :  2.0000

 Solvent             : h2o
 Using internal parameter file: .param_gbsa2_h2o
 Gsolv ref. state (COSMO-RS): gsolv [1 M gas/solution]
 temperature (mdtemp)       :    298.150000000000     
 dielectric constant        :    80.2000000000000     
 rho                        :    1.00000000000000     
 mass                       :    18.0000000000000     
 surface tension            :    15.5689454083859     
 probe radius               :   0.975313790000000     
 vdW radii scaling          :    1.00000000000000     
 Gshift (Eh)                :   1.857443126794793E-003
 c1                         :    1.55243817000000     
 soset                      :   0.130326360000000     
 HB correction              :  T

            Z     q(EN)     CN     RAES       Cart. coordinates
     1  N   5.0   -0.10    4.17    3.36    59.45983    28.06623    36.71230
     2  C   4.0    0.01    4.30    4.21    60.75925    30.55513    36.65937
     3  C   4.0    0.16    3.45    3.09    58.68421    32.51851    36.04029
     4  O   6.0   -0.32    1.33    1.80    56.54186    31.76005    35.62848
     5  C   4.0    0.03    4.15    3.89    62.77823    30.48935    34.57048
     6  O   6.0   -0.26    2.10    1.84    61.52479    29.70236    32.34160
     7  H   1.0    0.08    1.07    1.44    57.51711    28.45979    36.78328
     8  H   1.0    0.08    1.05    1.44    59.79239    27.16891    35.00031
     9  H   1.0    0.07    1.01    1.43    60.00754    26.92098    38.18249
    10  H   1.0    0.05    1.04    1.43    61.62484    30.98953    38.48221
    11  H   1.0    0.05    1.01    1.43    63.63914    32.35263    34.32292
    12  H   1.0    0.05    1.01    1.43    64.26250    29.14850    35.10018
    13  H   1.0    0.13    1.02    1.43    62.76247    29.23830    31.08804
    14  N   5.0   -0.15    3.46    2.06    59.39993    34.92165    36.00157
    15  C   4.0    0.03    4.50    4.54    57.65051    36.92239    35.29135
    16  C   4.0    0.16    3.51    3.12    56.75213    36.44236    32.57309
    17  O   6.0   -0.30    1.32    1.80    54.51942    36.25572    32.04498
    18  C   4.0   -0.03    4.31    4.23    58.86953    39.54212    35.58251
    19  C   4.0   -0.04    4.17    3.94    59.33051    40.21008    38.37397
    20  C   4.0   -0.06    4.14    3.88    57.24822    41.53163    34.25414
    21  C   4.0   -0.06    4.02    3.65    56.94725    40.52191    39.96421
    22  H   1.0    0.07    1.06    1.44    61.18512    35.42670    36.45600
    23  H   1.0    0.05    1.06    1.44    55.96116    36.81013    36.48214
    24  H   1.0    0.05    1.05    1.44    60.71930    39.51681    34.64834
    25  H   1.0    0.05    1.03    1.43    60.52386    38.77128    39.24591
    26  H   1.0    0.06    1.03    1.43    60.38495    41.98240    38.41871
    27  H   1.0    0.06    1.00    1.43    55.27893    41.40079    34.82099
    28  H   1.0    0.06    1.00    1.43    57.93407    43.41631    34.69643
    29  H   1.0    0.06    1.00    1.43    57.32293    41.29543    32.21319
    30  H   1.0    0.05    1.00    1.43    55.72248    41.97404    39.18750
    31  H   1.0    0.05    1.00    1.43    55.88834    38.76987    40.10159
    32  H   1.0    0.06    1.00    1.43    57.46970    41.09698    41.86644
    33  N   5.0   -0.14    3.51    2.09    58.62716    36.03056    30.91465
    34  C   4.0    0.03    4.48    4.51    58.15184    35.58352    28.24482
    35  C   4.0    0.17    3.54    3.13    55.86489    33.81363    28.01610
    36  O   6.0   -0.28    1.22    1.80    53.99542    34.31165    26.75749
    37  C   4.0   -0.02    4.27    4.13    60.50615    34.41015    26.99237
    38  C   4.0   -0.06    4.13    3.86    59.89911    33.63153    24.27966
    39  C   4.0   -0.06    4.11    3.81    62.73587    36.24851    26.99699
    40  H   1.0    0.07    1.07    1.44    60.41041    36.53991    31.36951
    41  H   1.0    0.06    1.05    1.44    57.65212    37.35046    27.27610
    42  H   1.0    0.05    1.05    1.44    61.03014    32.71931    28.05820
    43  H   1.0    0.06    1.00    1.43    61.53515    32.74601    23.40922
    44  H   1.0    0.06    1.00    1.43    58.32766    32.30999    24.20768
    45  H   1.0    0.06    1.00    1.43    59.38758    35.27638    23.15653
    46  H   1.0    0.06    1.00    1.43    64.31059    35.41865    25.97154
    47  H   1.0    0.06    1.00    1.43    62.22715    38.00242    26.05293
    48  H   1.0    0.05    1.00    1.43    63.39433    36.69522    28.89056
    49  N   5.0   -0.13    3.51    2.08    56.14276    31.63013    29.28048
    50  C   4.0    0.04    4.35    4.29    54.23846    29.66283    29.12856
    51  C   4.0    0.17    3.45    3.09    51.73171    30.59444    30.24024
    52  O   6.0   -0.31    1.30    1.80    49.74765    30.41713    29.05151
    53  C   4.0   -0.06    4.12    3.84    55.13158    27.31242    30.53295
    54  H   1.0    0.09    1.07    1.44    57.74548    31.25141    30.25404
    55  H   1.0    0.06    1.05    1.44    53.86951    29.24152    27.13109
    56  H   1.0    0.05    1.00    1.43    53.74482    25.81417    30.31641
    57  H   1.0    0.06    1.00    1.43    56.91077    26.66905    29.73602
    58  H   1.0    0.06    1.00    1.43    55.34529    27.74916    32.52411
    59  N   5.0   -0.14    3.49    2.07    51.86978    31.41440    32.62014
    60  C   4.0    0.04    4.42    4.41    49.63886    32.09244    34.06504
    61  C   4.0    0.16    3.51    3.12    47.95455    33.97177    32.65843
    62  O   6.0   -0.30    1.33    1.80    45.68168    33.59437    32.38945
    63  C   4.0   -0.04    4.28    4.15    50.41658    33.16419    36.63863
    64  C   4.0   -0.04    4.19    3.99    48.14446    33.69241    38.35339
    65  C   4.0    0.00    4.20    4.00    46.80759    31.30051    39.26813
    66  N   5.0   -0.14    3.41    2.03    48.52471    29.79062    40.78476
    67  C   4.0    0.10    3.33    3.06    48.47164    27.29671    41.08025
    68  N   5.0   -0.18    3.25    1.97    46.79979    25.85809    39.88109
    69  N   5.0   -0.17    3.24    1.97    50.26132    26.19783    42.48002
    70  H   1.0    0.11    1.10    1.44    53.57376    31.77524    33.43079
    71  H   1.0    0.05    1.06    1.44    48.50508    30.37463    34.30427
    72  H   1.0    0.06    1.03    1.43    51.68873    31.81716    37.53850
    73  H   1.0    0.06    1.03    1.43    51.43326    34.92667    36.31357
    74  H   1.0    0.05    1.03    1.43    48.77355    34.79312    39.97865
    75  H   1.0    0.06    1.03    1.43    46.75585    34.82115    37.33278
    76  H   1.0    0.06    1.02    1.43    45.13999    31.84567    40.36222
    77  H   1.0    0.05    1.03    1.43    46.15479    30.22470    37.63957
    78  H   1.0    0.08    1.07    1.44    49.69602    30.80553    41.90419
    79  H   1.0    0.09    1.03    1.43    45.35206    26.60042    38.89421
    80  H   1.0    0.10    1.03    1.43    46.81464    23.96906    40.10244
    81  H   1.0    0.10    1.03    1.43    51.45349    27.23791    43.53971
    82  H   1.0    0.10    1.03    1.43    50.16424    24.33469    42.85861
    83  N   5.0   -0.13    3.51    2.08    49.10135    36.06292    31.84503
    84  C   4.0    0.05    4.42    4.42    47.67086    38.00396    30.55560
    85  C   4.0    0.17    3.50    3.12    45.80089    36.80328    28.70064
    86  O   6.0   -0.29    1.22    1.80    43.56406    37.37575    28.62274
    87  C   4.0    0.05    4.16    3.92    49.44622    39.79187    29.13998
    88  O   6.0   -0.24    2.05    1.83    50.88752    41.12437    30.93530
    89  H   1.0    0.12    1.10    1.44    50.99907    36.31278    31.99504
    90  H   1.0    0.07    1.05    1.44    46.57612    39.10797    31.93152
    91  H   1.0    0.07    1.01    1.43    50.67638    38.69590    27.87324
    92  H   1.0    0.06    1.01    1.43    48.29675    41.06818    27.97861
    93  H   1.0    0.13    1.02    1.43    51.71859    42.52410    30.11594
    94  N   5.0   -0.12    3.57    2.13    46.87250    35.10790    27.16060
    95  C   4.0    0.05    4.45    4.45    45.48711    33.92288    25.12528
    96  C   4.0    0.16    3.46    3.10    43.59365    32.01776    26.21889
    97  O   6.0   -0.30    1.30    1.80    41.34810    32.06200    25.63071
    98  C   4.0   -0.03    4.31    4.22    47.33356    32.68048    23.29481
    99  C   4.0    0.17    3.23    3.04    48.97033    34.66156    21.97577
   100  O   6.0   -0.27    1.23    1.80    49.02248    36.88045    22.59506
   101  N   5.0   -0.17    3.18    1.95    50.37684    33.73109    20.08573
   102  H   1.0    0.11    1.08    1.44    48.75558    34.80831    27.22539
   103  H   1.0    0.07    1.05    1.44    44.37252    35.37562    24.14527
   104  H   1.0    0.06    1.03    1.43    48.57025    31.40032    24.34083
   105  H   1.0    0.05    1.03    1.43    46.28948    31.60312    21.88317
   106  H   1.0    0.12    1.03    1.43    51.49059    34.91930    19.09907
   107  H   1.0    0.10    1.03    1.43    50.25106    31.91522    19.54575
   108  N   5.0   -0.13    3.50    2.08    44.56474    30.36017    27.83540
   109  C   4.0    0.04    4.44    4.45    43.00795    28.51315    29.13392
   110  C   4.0    0.17    3.58    3.16    40.47090    29.67506    29.87191
   111  O   6.0   -0.31    1.33    1.80    38.44924    28.67163    29.32410
   112  C   4.0   -0.03    4.35    4.29    44.36855    27.60116    31.52857
   113  C   4.0   -0.01    3.60    3.16    42.60996    26.05678    33.14460
   114  C   4.0   -0.03    3.47    3.10    41.47086    27.12129    35.25936
   115  C   4.0   -0.03    3.46    3.10    42.04535    23.57553    32.49969
   116  C   4.0   -0.03    3.37    3.07    39.78381    25.72451    36.69375
   117  C   4.0   -0.03    3.37    3.07    40.35693    22.18351    33.93165
   118  C   4.0   -0.03    3.37    3.07    39.21921    23.25701    36.03032
   119  H   1.0    0.12    1.11    1.45    46.42506    30.45807    28.32658
   120  H   1.0    0.06    1.05    1.44    42.59026    26.92719    27.86263
   121  H   1.0    0.05    1.03    1.43    46.01571    26.50093    30.95853
   122  H   1.0    0.06    1.04    1.43    44.96824    29.28395    32.55266
   123  H   1.0    0.07    1.03    1.43    41.85289    29.06691    35.75230
   124  H   1.0    0.06    1.03    1.43    42.91907    22.73635    30.85732
   125  H   1.0    0.06    1.03    1.43    38.89358    26.57662    38.31891
   126  H   1.0    0.06    1.03    1.43    39.92049    20.26307    33.40083
   127  H   1.0    0.06    1.03    1.43    37.89471    22.17480    37.14006
   128  N   5.0   -0.13    3.54    2.11    40.63146    31.76524    31.25917
   129  C   4.0    0.05    4.44    4.45    38.41545    32.97438    32.30325
   130  C   4.0    0.16    3.50    3.11    36.25650    33.11468    30.38465
   131  O   6.0   -0.31    1.27    1.80    34.06846    32.63058    30.98497
   132  C   4.0   -0.03    4.32    4.24    39.09868    35.63495    33.19856
   133  C   4.0    0.17    3.22    3.04    40.73373    35.56390    35.57504
   134  O   6.0   -0.29    1.22    1.80    41.59784    33.63550    36.47815
   135  N   5.0   -0.17    3.19    1.95    41.14627    37.85023    36.58778
   136  H   1.0    0.12    1.10    1.44    42.33661    32.53084    31.69155
   137  H   1.0    0.06    1.05    1.44    37.71305    31.85833    33.91056
   138  H   1.0    0.07    1.03    1.43    40.14157    36.61010    31.70315
   139  H   1.0    0.05    1.03    1.43    37.37142    36.69092    33.58839
   140  H   1.0    0.11    1.03    1.43    42.14976    37.99715    38.20122
   141  H   1.0    0.09    1.03    1.43    40.37565    39.41906    35.84533
   142  N   5.0   -0.14    3.54    2.11    36.90755    33.97216    28.10005
   143  C   4.0    0.04    4.50    4.53    35.05920    34.39913    26.12918
   144  C   4.0    0.16    3.50    3.12    33.40520    32.07713    25.67646
   145  O   6.0   -0.32    1.30    1.80    31.17239    32.27738    25.07146
   146  C   4.0   -0.02    4.27    4.13    36.41019    35.24514    23.69534
   147  C   4.0   -0.06    4.12    3.85    34.53824    35.55176    21.52289
   148  C   4.0   -0.06    4.12    3.84    37.79795    37.73729    24.15438
   149  H   1.0    0.11    1.10    1.44    38.74315    33.95238    27.55324
   150  H   1.0    0.05    1.06    1.44    33.75856    35.89566    26.74497
   151  H   1.0    0.07    1.06    1.44    37.78741    33.78033    23.21006
   152  H   1.0    0.06    1.00    1.43    35.51950    36.17345    19.83009
   153  H   1.0    0.06    1.00    1.43    33.57371    33.78715    21.10203
   154  H   1.0    0.05    1.00    1.43    33.10894    36.95169    21.99724
   155  H   1.0    0.06    1.00    1.43    38.69217    38.35494    22.41219
   156  H   1.0    0.05    1.00    1.43    36.47212    39.18948    24.75067
   157  H   1.0    0.07    1.00    1.43    39.25733    37.54653    25.58748
   158  N   5.0   -0.14    3.51    2.08    34.54095    29.83334    25.92714
   159  C   4.0    0.05    4.50    4.54    33.14318    27.50211    25.63467
   160  C   4.0    0.16    3.58    3.16    30.63829    27.47009    27.08990
   161  O   6.0   -0.28    1.31    1.80    28.88336    26.16107    26.33656
   162  C   4.0   -0.03    4.13    3.87    34.76192    25.30723    26.57253
   163  S   6.0   -0.01    2.49    3.10    32.87274    22.42511    26.82067
   164  H   1.0    0.12    1.11    1.45    36.27995    29.70560    26.73874
   165  H   1.0    0.06    1.05    1.44    32.63515    27.23270    23.63696
   166  H   1.0    0.06    1.06    1.44    36.29962    24.95438    25.25139
   167  H   1.0    0.06    1.07    1.44    35.51300    25.75318    28.43655
   168  H   1.0    0.06    0.98    1.43    34.85661    20.97870    27.40967
   169  N   5.0   -0.14    3.54    2.11    30.62266    28.66679    29.31788
   170  C   4.0    0.04    4.44    4.44    28.45048    28.52577    30.95895
   171  C   4.0    0.16    3.39    3.08    26.41678    30.54114    30.47216
   172  O   6.0   -0.26    1.23    1.80    24.64930    30.76722    31.95266
   173  C   4.0   -0.03    4.27    4.15    29.28879    28.65412    33.72861
   174  C   4.0   -0.04    4.18    3.97    31.41246    26.80195    34.40935
   175  C   4.0   -0.00    4.23    4.05    31.03786    24.11054    33.44463
   176  N   5.0   -0.13    3.41    2.03    28.71718    23.01980    34.42305
   177  C   4.0    0.11    3.34    3.06    27.59109    20.97926    33.49686
   178  N   5.0   -0.17    3.26    1.97    28.67647    19.61355    31.68480
   179  N   5.0   -0.16    3.24    1.96    25.45379    20.15803    34.55122
   180  H   1.0    0.11    1.10    1.44    31.96548    29.96137    29.78078
   181  H   1.0    0.07    1.07    1.44    27.49823    26.72824    30.54432
   182  H   1.0    0.06    1.03    1.43    29.95565    30.57202    34.09187
   183  H   1.0    0.07    1.03    1.43    27.60236    28.36544    34.87387
   184  H   1.0    0.05    1.03    1.43    33.17852    27.50369    33.61213
   185  H   1.0    0.05    1.03    1.43    31.60414    26.78616    36.45996
   186  H   1.0    0.05    1.05    1.44    30.98204    24.12939    31.38090
   187  H   1.0    0.05    1.02    1.43    32.64365    22.95556    34.04958
   188  H   1.0    0.09    1.07    1.44    27.85718    23.98581    35.82467
   189  H   1.0    0.09    1.05    1.44    30.15437    20.29749    30.69130
   190  H   1.0    0.11    1.03    1.43    27.71421    18.17278    30.89663
   191  H   1.0    0.11    1.03    1.43    24.55572    21.19551    35.86778
   192  H   1.0    0.11    1.03    1.43    24.51806    18.67702    33.81134
   193  N   5.0   -0.14    3.49    2.07    26.72241    31.96891    28.41292
   194  C   4.0    0.04    4.42    4.42    24.98405    33.95961    27.75782
   195  C   4.0    0.16    3.47    3.10    22.91157    33.34416    25.81502
   196  O   6.0   -0.24    1.24    1.80    20.83289    34.37445    26.11814
   197  C   4.0   -0.04    4.36    4.31    26.42276    36.29642    26.83044
   198  C   4.0   -0.02    4.18    3.96    28.27438    37.38476    28.77883
   199  C   4.0   -0.07    4.10    3.81    29.68373    39.61170    27.59697
   200  C   4.0   -0.06    4.10    3.81    26.93323    38.22864    31.18913
   201  H   1.0    0.11    1.11    1.44    28.25217    31.75644    27.28178
   202  H   1.0    0.08    1.07    1.44    23.91805    34.41030    29.47748
   203  H   1.0    0.05    1.03    1.43    27.46759    35.76869    25.13007
   204  H   1.0    0.06    1.03    1.43    25.02641    37.72492    26.31234
   205  H   1.0    0.06    1.05    1.44    29.63880    35.90302    29.26254
   206  H   1.0    0.05    1.00    1.43    31.11017    40.32912    28.88888
   207  H   1.0    0.05    1.00    1.43    30.59491    39.03901    25.84576
   208  H   1.0    0.06    1.00    1.43    28.36593    41.12821    27.16548
   209  H   1.0    0.06    1.00    1.43    28.26009    39.16461    32.44650
   210  H   1.0    0.06    1.00    1.43    25.41566    39.53923    30.73636
   211  H   1.0    0.06    1.00    1.43    26.12181    36.62450    32.18315
   212  N   5.0   -0.09    3.67    2.23    23.42291    31.99232    23.75843
   213  C   4.0    0.05    4.58    4.64    21.43364    31.43243    21.96368
   214  C   4.0    0.27    3.17    3.03    19.73888    29.16199    22.89464
   215  O   6.0   -0.23    1.17    1.80    17.94979    28.60288    21.47137
   216  C   4.0   -0.03    4.33    4.25    22.86437    30.76257    19.55979
   217  C   4.0   -0.03    4.26    4.13    25.14106    29.32036    20.59093
   218  C   4.0    0.00    4.37    4.33    25.68527    30.56284    23.15549
   219  O   6.0   -0.23    1.18    1.80    20.33541    28.13777    24.92093
   220  H   1.0    0.08    1.05    1.44    20.17268    33.06104    21.76243
   221  H   1.0    0.07    1.02    1.43    21.68847    29.63035    18.30773
   222  H   1.0    0.06    1.02    1.43    23.45117    32.48097    18.58133
   223  H   1.0    0.07    1.03    1.43    24.62565    27.34717    20.88160
   224  H   1.0    0.06    1.02    1.43    26.76511    29.41315    19.33462
   225  H   1.0    0.08    1.03    1.43    26.02992    29.11493    24.58563
   226  H   1.0    0.06    1.02    1.43    27.31118    31.83092    23.05764

  Z AO/shell   Hii/eV     exponent
  1     Wed Apr 25 08:07:45 CEST 2018   EN: 2.200 GM2: 0.406  GM3: 0.0800  RAES: 1.40
     1s    -10.707211    1.230000
  6     Wed Apr 25 08:07:45 CEST 2018   EN: 2.550 GM2: 0.538  GM3: 0.1500  RAES: 3.00
     2s    -13.970922    2.096432
     2p    -10.063292    1.800000
  7     Wed Apr 25 08:07:45 CEST 2018   EN: 3.040 GM2: 0.461  GM3:-0.0640  RAES: 1.90
     2s    -16.686243    2.339881
     2p    -12.523956    2.014332
  8     Wed Apr 25 08:07:45 CEST 2018   EN: 3.440 GM2: 0.452  GM3:-0.0517  RAES: 1.80
     2s    -20.229985    2.439742
     2p    -15.503117    2.137023
 16     Tue Apr 24 11:44:34 CEST 2018   EN: 2.580 GM2: 0.340  GM3:-0.0502  RAES: 3.10
     3s    -20.029654    1.981333
     3p    -11.377694    2.025643
     3d     -0.420282    1.702555
 no old-style atom pair restraining (fixing) potential
           ------------------------------------------------- 
          |        Self-Consistent Charge Iterations        |
           ------------------------------------------------- 

 Ncao       : 562
 Nao        : 561
 Nshell     : 337
 Nel        : 616
 T(el)      :   500.0
 intcut     :    35.0
 scfconv/Eh :  0.100E-06
   qconv/e  :  0.100E-04
 intneglect :  0.100E-08
 broydamp   :      0.400
 iter      E             dE          RMSdq      gap      omega  full diag
   1   -352.7833555 -0.352783E+03  0.453E+00    4.28       0.0  T
   2   -353.5413944 -0.758039E+00  0.214E+00    3.36       1.0  T
   3   -353.5846106 -0.432162E-01  0.115E+00    3.27       1.0  T
   4   -353.6340874 -0.494768E-01  0.271E-01    2.35       1.0  T
   5   -353.6369211 -0.283375E-02  0.133E-01    2.41       1.0  T
   6   -353.6374634 -0.542245E-03  0.614E-02    2.43       1.0  T
   7   -353.6377183 -0.254892E-03  0.310E-02    2.45       1.0  T
   8   -353.6377488 -0.305522E-04  0.137E-02    2.47       1.0  T
   9   -353.6377567 -0.783380E-05  0.566E-03    2.48       1.2  T
  10   -353.6377573 -0.612069E-06  0.267E-03    2.47       2.5  T
  11   -353.6377577 -0.379562E-06  0.932E-04    2.47       7.1  T
  12   -353.6377577 -0.465786E-07  0.435E-04    2.47      15.3  T
  13   -353.6377577 -0.742438E-08  0.167E-04    2.47      39.8  T
  14   -353.6377577 -0.729699E-09  0.683E-05    2.47      97.3  T
  15   -353.6377577 -0.135572E-09  0.270E-05    2.47     246.3  T
speedup 11.99
cpu  time for SCC    8.08 s
wall time for SCC    0.67 s

   *** convergence criteria satisfied after 15 iterations ***

          eigenvalues
 #    :         296        297        298        299        300        301        302        303
 occ. :        2.000      2.000      2.000      2.000      2.000      2.000      2.000      2.000
 eps  :       -11.016    -10.979    -10.969    -10.922    -10.908    -10.882    -10.732    -10.728
 #    :         304        305        306        307        308        309        310        311
 occ. :        2.000      2.000      2.000      2.000      2.000      0.000      0.000      0.000
 eps  :       -10.698    -10.362    -10.310    -10.306     -9.504     -7.031     -6.672     -6.621
 #    :         312        313        314        315        316        317        318        319
 occ. :        0.000      0.000      0.000      0.000      0.000      0.000      0.000      0.000
 eps  :        -6.462     -6.395     -6.338     -6.249     -6.223     -6.201     -6.175     -6.138


   #   Z            q   n(s)   n(p)   n(d)      C6AA      α(0)
   1   7 N     -0.155  1.227  3.928  0.000    24.344     7.328
   2   6 C     -0.034  1.075  2.959  0.000    21.197     6.559
   3   6 C      0.263  1.033  2.703  0.000    22.561     7.778
   4   8 O     -0.441  1.727  4.714  0.000    22.519     6.362
   5   6 C      0.046  1.044  2.910  0.000    20.020     6.411
   6   8 O     -0.464  1.704  4.759  0.000    22.124     6.350
   7   1 H      0.312  0.688  0.000  0.000     0.680     1.292
   8   1 H      0.306  0.694  0.000  0.000     0.696     1.307
   9   1 H      0.314  0.686  0.000  0.000     0.674     1.286
  10   1 H      0.147  0.853  0.000  0.000     1.412     1.858
  11   1 H      0.071  0.929  0.000  0.000     2.073     2.252
  12   1 H      0.085  0.915  0.000  0.000     1.925     2.170
  13   1 H      0.344  0.656  0.000  0.000     0.603     1.220
  14   7 N     -0.148  1.233  3.915  0.000    24.212     7.308
  15   6 C     -0.004  1.073  2.931  0.000    20.654     6.471
  16   6 C      0.277  1.040  2.683  0.000    22.310     7.735
  17   8 O     -0.459  1.741  4.718  0.000    22.897     6.416
  18   6 C     -0.029  1.068  2.961  0.000    21.053     6.526
  19   6 C     -0.069  1.052  3.017  0.000    21.827     6.652
  20   6 C     -0.116  1.036  3.080  0.000    22.785     6.806
  21   6 C     -0.120  1.036  3.084  0.000    22.857     6.818
  22   1 H      0.224  0.776  0.000  0.000     0.993     1.561
  23   1 H      0.108  0.892  0.000  0.000     1.718     2.050
  24   1 H      0.051  0.949  0.000  0.000     2.309     2.376
  25   1 H      0.055  0.945  0.000  0.000     2.256     2.349
  26   1 H      0.043  0.957  0.000  0.000     2.409     2.427
  27   1 H      0.056  0.944  0.000  0.000     2.245     2.343
  28   1 H      0.049  0.951  0.000  0.000     2.331     2.388
  29   1 H      0.031  0.969  0.000  0.000     2.571     2.507
  30   1 H      0.040  0.960  0.000  0.000     2.445     2.445
  31   1 H      0.055  0.945  0.000  0.000     2.257     2.349
  32   1 H      0.040  0.960  0.000  0.000     2.449     2.447
  33   7 N     -0.180  1.247  3.933  0.000    24.898     7.411
  34   6 C      0.012  1.068  2.920  0.000    20.376     6.427
  35   6 C      0.288  1.037  2.675  0.000    22.127     7.703
  36   8 O     -0.506  1.762  4.745  0.000    23.923     6.558
  37   6 C     -0.029  1.067  2.962  0.000    21.056     6.527
  38   6 C     -0.117  1.038  3.079  0.000    22.785     6.806
  39   6 C     -0.124  1.041  3.083  0.000    22.925     6.827
  40   1 H      0.215  0.785  0.000  0.000     1.031     1.590
  41   1 H      0.053  0.947  0.000  0.000     2.281     2.362
  42   1 H      0.073  0.927  0.000  0.000     2.056     2.242
  43   1 H      0.057  0.943  0.000  0.000     2.234     2.337
  44   1 H      0.038  0.962  0.000  0.000     2.479     2.462
  45   1 H      0.035  0.965  0.000  0.000     2.512     2.478
  46   1 H      0.059  0.941  0.000  0.000     2.206     2.323
  47   1 H      0.040  0.960  0.000  0.000     2.446     2.446
  48   1 H      0.054  0.946  0.000  0.000     2.269     2.356
  49   7 N     -0.186  1.245  3.941  0.000    25.038     7.432
  50   6 C      0.018  1.060  2.922  0.000    20.270     6.411
  51   6 C      0.273  1.044  2.683  0.000    22.386     7.748
  52   8 O     -0.507  1.746  4.761  0.000    23.932     6.559
  53   6 C     -0.157  1.049  3.108  0.000    23.599     6.926
  54   1 H      0.231  0.769  0.000  0.000     0.960     1.535
  55   1 H      0.061  0.939  0.000  0.000     2.187     2.312
  56   1 H      0.079  0.921  0.000  0.000     1.986     2.204
  57   1 H      0.090  0.910  0.000  0.000     1.881     2.145
  58   1 H      0.097  0.903  0.000  0.000     1.813     2.106
  59   7 N     -0.169  1.244  3.925  0.000    24.666     7.376
  60   6 C      0.003  1.065  2.931  0.000    20.526     6.451
  61   6 C      0.278  1.040  2.682  0.000    22.303     7.734
  62   8 O     -0.498  1.747  4.751  0.000    23.731     6.531
  63   6 C     -0.099  1.061  3.037  0.000    22.378     6.734
  64   6 C     -0.084  1.051  3.034  0.000    22.103     6.693
  65   6 C     -0.028  1.051  2.977  0.000    21.158     6.564
  66   7 N     -0.136  1.208  3.928  0.000    23.958     7.270
  67   6 C      0.229  1.018  2.753  0.000    23.189     7.884
  68   7 N     -0.237  1.220  4.017  0.000    26.194     7.601
  69   7 N     -0.259  1.236  4.023  0.000    26.716     7.677
  70   1 H      0.248  0.752  0.000  0.000     0.892     1.479
  71   1 H      0.093  0.907  0.000  0.000     1.846     2.125
  72   1 H      0.112  0.888  0.000  0.000     1.680     2.027
  73   1 H      0.073  0.927  0.000  0.000     2.049     2.239
  74   1 H      0.081  0.919  0.000  0.000     1.972     2.196
  75   1 H      0.055  0.945  0.000  0.000     2.261     2.351
  76   1 H      0.085  0.915  0.000  0.000     1.932     2.174
  77   1 H      0.081  0.919  0.000  0.000     1.969     2.194
  78   1 H      0.241  0.759  0.000  0.000     0.919     1.501
  79   1 H      0.226  0.774  0.000  0.000     0.985     1.554
  80   1 H      0.253  0.747  0.000  0.000     0.873     1.463
  81   1 H      0.256  0.744  0.000  0.000     0.862     1.454
  82   1 H      0.251  0.749  0.000  0.000     0.878     1.468
  83   7 N     -0.181  1.247  3.934  0.000    24.915     7.413
  84   6 C      0.019  1.060  2.921  0.000    20.250     6.407
  85   6 C      0.281  1.040  2.679  0.000    22.236     7.722
  86   8 O     -0.498  1.746  4.751  0.000    23.735     6.532
  87   6 C      0.078  1.035  2.887  0.000    19.491     6.324
  88   8 O     -0.456  1.704  4.752  0.000    21.973     6.328
  89   1 H      0.249  0.751  0.000  0.000     0.886     1.474
  90   1 H      0.078  0.922  0.000  0.000     2.003     2.213
  91   1 H      0.041  0.959  0.000  0.000     2.436     2.441
  92   1 H      0.025  0.975  0.000  0.000     2.658     2.549
  93   1 H      0.339  0.661  0.000  0.000     0.614     1.231
  94   7 N     -0.169  1.237  3.931  0.000    24.647     7.373
  95   6 C      0.035  1.054  2.911  0.000    19.988     6.366
  96   6 C      0.271  1.043  2.686  0.000    22.423     7.754
  97   8 O     -0.511  1.751  4.760  0.000    24.028     6.572
  98   6 C     -0.115  1.064  3.051  0.000    22.690     6.780
  99   6 C      0.294  1.033  2.673  0.000    22.013     7.682
 100   8 O     -0.495  1.753  4.742  0.000    23.677     6.524
 101   7 N     -0.291  1.265  4.026  0.000    27.496     7.788
 102   1 H      0.212  0.788  0.000  0.000     1.048     1.604
 103   1 H      0.064  0.936  0.000  0.000     2.149     2.292
 104   1 H      0.101  0.899  0.000  0.000     1.772     2.082
 105   1 H      0.081  0.919  0.000  0.000     1.974     2.197
 106   1 H      0.234  0.766  0.000  0.000     0.947     1.525
 107   1 H      0.235  0.765  0.000  0.000     0.943     1.521
 108   7 N     -0.183  1.255  3.927  0.000    24.955     7.419
 109   6 C      0.023  1.063  2.914  0.000    20.188     6.397
 110   6 C      0.285  1.041  2.675  0.000    22.179     7.712
 111   8 O     -0.512  1.745  4.767  0.000    24.052     6.575
 112   6 C     -0.092  1.060  3.033  0.000    22.250     6.714
 113   6 C      0.005  1.080  2.916  0.000    27.917     8.667
 114   6 C     -0.055  1.085  2.970  0.000    29.369     8.887
 115   6 C     -0.041  1.081  2.960  0.000    29.013     8.833
 116   6 C     -0.038  1.082  2.956  0.000    28.935     8.821
 117   6 C     -0.034  1.082  2.952  0.000    28.849     8.808
 118   6 C     -0.038  1.082  2.956  0.000    28.933     8.821
 119   1 H      0.252  0.748  0.000  0.000     0.877     1.467
 120   1 H      0.069  0.931  0.000  0.000     2.098     2.265
 121   1 H      0.083  0.917  0.000  0.000     1.945     2.181
 122   1 H      0.080  0.920  0.000  0.000     1.979     2.200
 123   1 H      0.058  0.942  0.000  0.000     2.226     2.333
 124   1 H      0.038  0.962  0.000  0.000     2.477     2.461
 125   1 H      0.048  0.952  0.000  0.000     2.347     2.396
 126   1 H      0.042  0.958  0.000  0.000     2.416     2.431
 127   1 H      0.046  0.954  0.000  0.000     2.376     2.410
 128   7 N     -0.176  1.245  3.931  0.000    24.803     7.397
 129   6 C      0.032  1.055  2.913  0.000    20.044     6.375
 130   6 C      0.277  1.043  2.680  0.000    22.311     7.735
 131   8 O     -0.498  1.744  4.755  0.000    23.749     6.534
 132   6 C     -0.111  1.062  3.049  0.000    22.619     6.769
 133   6 C      0.288  1.034  2.677  0.000    22.110     7.699
 134   8 O     -0.451  1.724  4.727  0.000    22.729     6.392
 135   7 N     -0.289  1.262  4.027  0.000    27.451     7.781
 136   1 H      0.243  0.757  0.000  0.000     0.909     1.494
 137   1 H      0.087  0.913  0.000  0.000     1.910     2.161
 138   1 H      0.086  0.914  0.000  0.000     1.920     2.167
 139   1 H      0.072  0.928  0.000  0.000     2.063     2.246
 140   1 H      0.243  0.757  0.000  0.000     0.912     1.496
 141   1 H      0.217  0.783  0.000  0.000     1.022     1.584
 142   7 N     -0.182  1.250  3.932  0.000    24.940     7.417
 143   6 C      0.022  1.063  2.915  0.000    20.207     6.400
 144   6 C      0.281  1.043  2.676  0.000    22.241     7.723
 145   8 O     -0.513  1.753  4.760  0.000    24.076     6.579
 146   6 C     -0.018  1.062  2.955  0.000    20.854     6.495
 147   6 C     -0.111  1.038  3.073  0.000    22.681     6.790
 148   6 C     -0.121  1.042  3.079  0.000    22.877     6.819
 149   1 H      0.222  0.778  0.000  0.000     0.999     1.566
 150   1 H      0.070  0.930  0.000  0.000     2.083     2.257
 151   1 H      0.057  0.943  0.000  0.000     2.231     2.336
 152   1 H      0.056  0.944  0.000  0.000     2.244     2.343
 153   1 H      0.030  0.970  0.000  0.000     2.593     2.518
 154   1 H      0.041  0.959  0.000  0.000     2.438     2.442
 155   1 H      0.054  0.946  0.000  0.000     2.267     2.355
 156   1 H      0.049  0.951  0.000  0.000     2.327     2.385
 157   1 H      0.055  0.945  0.000  0.000     2.258     2.350
 158   7 N     -0.200  1.260  3.940  0.000    25.338     7.476
 159   6 C      0.040  1.052  2.908  0.000    19.882     6.344
 160   6 C      0.285  1.038  2.677  0.000    22.175     7.712
 161   8 O     -0.499  1.758  4.741  0.000    23.764     6.536
 162   6 C     -0.022  1.071  2.951  0.000    20.973     6.520
 163  16 S     -0.322  1.953  4.306  0.064   155.063    20.959
 164   1 H      0.234  0.766  0.000  0.000     0.947     1.525
 165   1 H      0.050  0.950  0.000  0.000     2.319     2.381
 166   1 H      0.076  0.924  0.000  0.000     2.018     2.221
 167   1 H      0.097  0.903  0.000  0.000     1.809     2.103
 168   1 H      0.235  0.765  0.000  0.000     0.938     1.514
 169   7 N     -0.184  1.246  3.938  0.000    24.991     7.425
 170   6 C      0.022  1.059  2.919  0.000    20.212     6.401
 171   6 C      0.272  1.043  2.685  0.000    22.407     7.752
 172   8 O     -0.509  1.753  4.756  0.000    23.984     6.566
 173   6 C     -0.077  1.053  3.025  0.000    21.971     6.673
 174   6 C     -0.085  1.053  3.032  0.000    22.123     6.697
 175   6 C     -0.029  1.052  2.976  0.000    21.166     6.565
 176   7 N     -0.135  1.206  3.929  0.000    23.932     7.266
 177   6 C      0.231  1.019  2.750  0.000    23.155     7.878
 178   7 N     -0.239  1.229  4.010  0.000    26.258     7.611
 179   7 N     -0.261  1.234  4.027  0.000    26.767     7.684
 180   1 H      0.222  0.778  0.000  0.000     1.003     1.568
 181   1 H      0.080  0.920  0.000  0.000     1.983     2.202
 182   1 H      0.063  0.937  0.000  0.000     2.159     2.298
 183   1 H      0.073  0.927  0.000  0.000     2.052     2.240
 184   1 H      0.075  0.925  0.000  0.000     2.036     2.231
 185   1 H      0.094  0.906  0.000  0.000     1.841     2.122
 186   1 H      0.068  0.932  0.000  0.000     2.105     2.269
 187   1 H      0.106  0.894  0.000  0.000     1.727     2.055
 188   1 H      0.230  0.770  0.000  0.000     0.965     1.539
 189   1 H      0.237  0.763  0.000  0.000     0.934     1.514
 190   1 H      0.248  0.752  0.000  0.000     0.892     1.480
 191   1 H      0.245  0.755  0.000  0.000     0.903     1.489
 192   1 H      0.249  0.751  0.000  0.000     0.886     1.475
 193   7 N     -0.190  1.250  3.941  0.000    25.129     7.445
 194   6 C      0.033  1.057  2.910  0.000    20.022     6.372
 195   6 C      0.259  1.049  2.692  0.000    22.629     7.790
 196   8 O     -0.558  1.764  4.794  0.000    25.104     6.718
 197   6 C     -0.065  1.057  3.008  0.000    21.745     6.637
 198   6 C     -0.006  1.056  2.950  0.000    20.657     6.465
 199   6 C     -0.114  1.042  3.072  0.000    22.732     6.798
 200   6 C     -0.115  1.040  3.075  0.000    22.753     6.801
 201   1 H      0.212  0.788  0.000  0.000     1.047     1.603
 202   1 H      0.068  0.932  0.000  0.000     2.108     2.271
 203   1 H      0.043  0.957  0.000  0.000     2.409     2.427
 204   1 H      0.040  0.960  0.000  0.000     2.452     2.449
 205   1 H      0.034  0.966  0.000  0.000     2.535     2.490
 206   1 H      0.055  0.945  0.000  0.000     2.258     2.350
 207   1 H      0.035  0.965  0.000  0.000     2.520     2.482
 208   1 H      0.044  0.956  0.000  0.000     2.399     2.422
 209   1 H      0.058  0.942  0.000  0.000     2.220     2.330
 210   1 H      0.037  0.963  0.000  0.000     2.485     2.465
 211   1 H      0.031  0.969  0.000  0.000     2.566     2.505
 212   7 N     -0.082  1.238  3.844  0.000    22.830     7.096
 213   6 C      0.019  1.074  2.907  0.000    20.221     6.397
 214   6 C      0.375  1.023  2.602  0.000    20.649     7.436
 215   8 O     -0.644  1.772  4.872  0.000    27.223     6.995
 216   6 C     -0.059  1.052  3.007  0.000    21.606     6.614
 217   6 C     -0.058  1.050  3.008  0.000    21.586     6.610
 218   6 C      0.004  1.049  2.947  0.000    20.542     6.460
 219   8 O     -0.629  1.769  4.861  0.000    26.854     6.948
 220   1 H      0.017  0.983  0.000  0.000     2.774     2.605
 221   1 H      0.042  0.958  0.000  0.000     2.420     2.433
 222   1 H      0.046  0.954  0.000  0.000     2.367     2.406
 223   1 H      0.040  0.960  0.000  0.000     2.452     2.449
 224   1 H      0.063  0.937  0.000  0.000     2.170     2.303
 225   1 H      0.054  0.946  0.000  0.000     2.265     2.353
 226   1 H      0.067  0.933  0.000  0.000     2.114     2.274

 Mol. C6AA /au·bohr⁶  :     474682.130434
 Mol. C8AA /au·bohr⁸  :   10731107.301547
 Mol. α(0) /au        :       1032.706817

 
 Wiberg/Mayer (AO) data. WBOs > 0.1 written file <wbo>
 largest (>0.05) Wiberg bond orders for each atom
           total WBO             WBO to atom ...
     1  N   3.649    C    2 0.977    H    9 0.890    H    8 0.879    H    7 0.851
     2  C   3.942    C    5 0.981    N    1 0.977    H   10 0.940    C    3 0.933    O    4 0.058
     3  C   3.958    O    4 1.617    N   14 1.333    C    2 0.933
     4  O   2.024    C    3 1.617    N   14 0.200    C    2 0.058
     5  C   3.950    O    6 1.002    C    2 0.981    H   12 0.963    H   11 0.961
     6  O   1.951    C    5 1.002    H   13 0.867
     7  H   0.903    N    1 0.851
     8  H   0.906    N    1 0.879
     9  H   0.901    N    1 0.890
    10  H   0.978    C    2 0.940
    11  H   0.995    C    5 0.961
    12  H   0.992    C    5 0.963
    13  H   0.882    O    6 0.867
    14  N   3.502    C    3 1.333    C   15 0.977    H   22 0.914    O    4 0.200
    15  C   3.959    N   14 0.977    C   18 0.972    H   23 0.941    C   16 0.928    O   17 0.051
    16  C   3.944    O   17 1.644    N   33 1.285    C   15 0.928
    17  O   2.021    C   16 1.644    N   33 0.194    C   15 0.051
    18  C   3.989    C   20 1.007    C   19 0.992    C   15 0.972    H   24 0.961
    19  C   3.993    C   21 1.021    C   18 0.992    H   26 0.975    H   25 0.973
    20  C   3.992    C   18 1.007    H   29 0.983    H   28 0.983    H   27 0.983
    21  C   3.994    C   19 1.021    H   32 0.986    H   30 0.986    H   31 0.982
    22  H   0.950    N   14 0.914
    23  H   0.988    C   15 0.941
    24  H   0.997    C   18 0.961
    25  H   0.997    C   19 0.973
    26  H   0.997    C   19 0.975
    27  H   0.997    C   20 0.983
    28  H   0.997    C   20 0.983
    29  H   0.999    C   20 0.983
    30  H   0.998    C   21 0.986
    31  H   0.997    C   21 0.982
    32  H   0.998    C   21 0.986
    33  N   3.449    C   16 1.285    C   34 0.978    H   40 0.911    O   17 0.194
    34  C   3.967    N   33 0.978    C   37 0.967    H   41 0.954    C   35 0.934    O   36 0.051
    35  C   3.947    O   36 1.643    N   49 1.288    C   34 0.934
    36  O   1.958    C   35 1.643    N   49 0.195    C   34 0.051
    37  C   3.988    C   38 1.009    C   39 1.008    C   34 0.967    H   42 0.959
    38  C   3.993    C   37 1.009    H   45 0.986    H   43 0.983    H   44 0.983
    39  C   3.992    C   37 1.008    H   47 0.986    H   46 0.981    H   48 0.978
    40  H   0.953    N   33 0.911
    41  H   0.997    C   34 0.954
    42  H   0.995    C   37 0.959
    43  H   0.996    C   38 0.983
    44  H   0.999    C   38 0.983
    45  H   0.999    C   38 0.986
    46  H   0.996    C   39 0.981
    47  H   0.998    C   39 0.986
    48  H   0.997    C   39 0.978
    49  N   3.449    C   35 1.288    C   50 0.975    H   54 0.906    O   36 0.195
    50  C   3.962    C   53 0.994    N   49 0.975    H   55 0.956    C   51 0.933
    51  C   3.944    O   52 1.597    N   59 1.329    C   50 0.933
    52  O   1.971    C   51 1.597    N   59 0.196
    53  C   3.973    C   50 0.994    H   56 0.980    H   57 0.976    H   58 0.974
    54  H   0.946    N   49 0.906
    55  H   0.996    C   50 0.956
    56  H   0.993    C   53 0.980
    57  H   0.992    C   53 0.976
    58  H   0.991    C   53 0.974
    59  N   3.476    C   51 1.329    C   60 0.980    H   70 0.878    O   52 0.196
    60  C   3.962    N   59 0.980    C   63 0.979    H   71 0.941    C   61 0.936
    61  C   3.936    O   62 1.598    N   83 1.315    C   60 0.936
    62  O   1.978    C   61 1.598    N   83 0.194
    63  C   3.978    C   64 1.007    C   60 0.979    H   73 0.969    H   72 0.961
    64  C   3.989    C   63 1.007    C   65 1.005    H   75 0.970    H   74 0.969
    65  C   3.958    C   64 1.005    N   66 0.988    H   76 0.958    H   77 0.956
    66  N   3.470    C   67 1.316    C   65 0.988    H   78 0.908    N   68 0.103    N   69 0.099
    67  C   3.978    N   68 1.324    N   66 1.316    N   69 1.305
    68  N   3.411    C   67 1.324    H   79 0.921    H   80 0.916    N   66 0.103    N   69 0.100
    69  N   3.376    C   67 1.305    H   82 0.917    H   81 0.915    N   68 0.100    N   66 0.099
    70  H   0.938    N   59 0.878
    71  H   0.991    C   60 0.941
    72  H   0.987    C   63 0.961
    73  H   0.994    C   63 0.969
    74  H   0.993    C   64 0.969
    75  H   0.996    C   64 0.970
    76  H   0.993    C   65 0.958
    77  H   0.993    C   65 0.956
    78  H   0.942    N   66 0.908
    79  H   0.949    N   68 0.921
    80  H   0.936    N   68 0.916
    81  H   0.935    N   69 0.915
    82  H   0.936    N   69 0.917
    83  N   3.472    C   61 1.315    C   84 0.991    H   89 0.876    O   62 0.194
    84  C   3.978    N   83 0.991    C   87 0.980    H   90 0.950    C   85 0.933    O   86 0.052
    85  C   3.947    O   86 1.631    N   94 1.295    C   84 0.933
    86  O   1.949    C   85 1.631    N   94 0.192    C   84 0.052
    87  C   3.965    O   88 1.008    C   84 0.980    H   92 0.970    H   91 0.963
    88  O   1.938    C   87 1.008    H   93 0.871
    89  H   0.937    N   83 0.876
    90  H   0.994    C   84 0.950
    91  H   0.998    C   87 0.963
    92  H   0.999    C   87 0.970
    93  H   0.885    O   88 0.871
    94  N   3.469    C   85 1.295    C   95 0.982    H  102 0.917    O   86 0.192
    95  C   3.969    C   98 0.990    N   94 0.982    H  103 0.954    C   96 0.928
    96  C   3.950    O   97 1.590    N  108 1.348    C   95 0.928
    97  O   1.948    C   96 1.590    N  108 0.201
    98  C   3.990    C   95 0.990    H  105 0.960    C   99 0.960    H  104 0.947    O  100 0.058
    99  C   3.947    O  100 1.654    N  101 1.307    C   98 0.960
   100  O   1.959    C   99 1.654    N  101 0.201    C   98 0.058
   101  N   3.390    C   99 1.307    H  107 0.927    H  106 0.924    O  100 0.201
   102  H   0.955    N   94 0.917
   103  H   0.995    C   95 0.954
   104  H   0.990    C   98 0.947
   105  H   0.993    C   98 0.960
   106  H   0.944    N  101 0.924
   107  H   0.945    N  101 0.927
   108  N   3.483    C   96 1.348    C  109 0.972    H  119 0.863    O   97 0.201
   109  C   3.959    N  108 0.972    C  112 0.962    H  120 0.953    C  110 0.940
   110  C   3.943    O  111 1.578    N  128 1.329    C  109 0.940
   111  O   1.946    C  110 1.578    N  128 0.187
   112  C   3.978    C  113 1.004    H  121 0.963    C  109 0.962    H  122 0.957
   113  C   3.986    C  115 1.414    C  114 1.412    C  112 1.004    C  118 0.110
   114  C   3.987    C  116 1.441    C  113 1.412    H  123 0.961    C  117 0.111
   115  C   3.991    C  117 1.446    C  113 1.414    H  124 0.969    C  116 0.112
   116  C   3.991    C  114 1.441    C  118 1.440    H  125 0.970    C  115 0.112
   117  C   3.992    C  115 1.446    C  118 1.438    H  126 0.970    C  114 0.111
   118  C   3.991    C  116 1.440    C  117 1.438    H  127 0.970    C  113 0.110
   119  H   0.936    N  108 0.863
   120  H   0.995    C  109 0.953
   121  H   0.993    C  112 0.963
   122  H   0.993    C  112 0.957
   123  H   0.997    C  114 0.961
   124  H   0.999    C  115 0.969
   125  H   0.997    C  116 0.970
   126  H   0.998    C  117 0.970
   127  H   0.997    C  118 0.970
   128  N   3.482    C  110 1.329    C  129 0.986    H  136 0.881    O  111 0.187
   129  C   3.970    N  128 0.986    C  132 0.983    H  137 0.946    C  130 0.938
   130  C   3.942    O  131 1.602    N  142 1.306    C  129 0.938
   131  O   1.951    C  130 1.602    N  142 0.187
   132  C   3.988    C  129 0.983    C  133 0.960    H  139 0.959    H  138 0.949    O  134 0.057
   133  C   3.956    O  134 1.664    N  135 1.302    C  132 0.960
   134  O   1.977    C  133 1.664    N  135 0.202    C  132 0.057
   135  N   3.390    C  133 1.302    H  141 0.935    H  140 0.920    O  134 0.202
   136  H   0.940    N  128 0.881
   137  H   0.992    C  129 0.946
   138  H   0.993    C  132 0.949
   139  H   0.994    C  132 0.959
   140  H   0.940    N  135 0.920
   141  H   0.953    N  135 0.935
   142  N   3.469    C  130 1.306    C  143 0.985    H  149 0.891    O  131 0.187
   143  C   3.966    N  142 0.985    C  146 0.961    H  150 0.945    C  144 0.943
   144  C   3.942    O  145 1.595    N  158 1.308    C  143 0.943
   145  O   1.943    C  144 1.595    N  158 0.188
   146  C   3.987    C  147 1.010    C  148 1.007    H  151 0.963    C  143 0.961
   147  C   3.994    C  146 1.010    H  153 0.985    H  154 0.985    H  152 0.984
   148  C   3.992    C  146 1.007    H  156 0.985    H  155 0.983    H  157 0.981
   149  H   0.950    N  142 0.891
   150  H   0.994    C  143 0.945
   151  H   0.997    C  146 0.963
   152  H   0.996    C  147 0.984
   153  H   0.999    C  147 0.985
   154  H   0.998    C  147 0.985
   155  H   0.996    C  148 0.983
   156  H   0.998    C  148 0.985
   157  H   0.997    C  148 0.981
   158  N   3.457    C  144 1.308    C  159 0.981    H  164 0.876    O  145 0.188
   159  C   3.968    C  162 0.986    N  158 0.981    H  165 0.954    C  160 0.934    O  161 0.051
   160  C   3.947    O  161 1.623    N  169 1.299    C  159 0.934
   161  O   1.957    C  160 1.623    N  169 0.191    C  159 0.051
   162  C   3.969    S  163 0.992    C  159 0.986    H  166 0.972    H  167 0.963
   163  S   2.002    C  162 0.992    H  168 0.933
   164  H   0.945    N  158 0.876
   165  H   0.997    C  159 0.954
   166  H   0.994    C  162 0.972
   167  H   0.990    C  162 0.963
   168  H   0.945    S  163 0.933
   169  N   3.467    C  160 1.299    C  170 0.989    H  180 0.886    O  161 0.191
   170  C   3.961    N  169 0.989    C  173 0.977    H  181 0.937    C  171 0.930    O  172 0.056
   171  C   3.940    O  172 1.620    N  193 1.304    C  170 0.930
   172  O   1.937    C  171 1.620    N  193 0.193    C  170 0.056
   173  C   3.981    C  174 1.004    C  170 0.977    H  182 0.972    H  183 0.969
   174  C   3.986    C  175 1.010    C  173 1.004    H  184 0.970    H  185 0.968
   175  C   3.954    C  174 1.010    N  176 0.980    H  187 0.956    H  186 0.956
   176  N   3.474    C  177 1.324    C  175 0.980    H  188 0.913    N  178 0.101    N  179 0.101
   177  C   3.978    N  176 1.324    N  178 1.319    N  179 1.304
   178  N   3.396    C  177 1.319    H  190 0.919    H  189 0.912    N  176 0.101    N  179 0.098
   179  N   3.380    C  177 1.304    H  191 0.920    H  192 0.918    N  176 0.101    N  178 0.098
   180  H   0.951    N  169 0.886
   181  H   0.993    C  170 0.937
   182  H   0.996    C  173 0.972
   183  H   0.994    C  173 0.969
   184  H   0.994    C  174 0.970
   185  H   0.991    C  174 0.968
   186  H   0.995    C  175 0.956
   187  H   0.989    C  175 0.956
   188  H   0.947    N  176 0.913
   189  H   0.944    N  178 0.912
   190  H   0.939    N  178 0.919
   191  H   0.940    N  179 0.920
   192  H   0.937    N  179 0.918
   193  N   3.474    C  171 1.304    C  194 0.990    H  201 0.892    O  172 0.193
   194  C   3.966    N  193 0.990    C  197 0.972    H  202 0.950    C  195 0.931
   195  C   3.945    O  196 1.564    N  212 1.330    C  194 0.931
   196  O   1.884    C  195 1.564    N  212 0.190
   197  C   3.987    C  198 0.991    H  204 0.973    C  194 0.972    H  203 0.971
   198  C   3.993    C  200 1.010    C  199 1.007    C  197 0.991    H  205 0.966
   199  C   3.994    C  198 1.007    H  208 0.986    H  206 0.985    H  207 0.983
   200  C   3.995    C  198 1.010    H  210 0.987    H  211 0.984    H  209 0.984
   201  H   0.955    N  193 0.892
   202  H   0.995    C  194 0.950
   203  H   0.998    C  197 0.971
   204  H   0.998    C  197 0.973
   205  H   0.999    C  198 0.966
   206  H   0.996    C  199 0.985
   207  H   0.999    C  199 0.983
   208  H   0.998    C  199 0.986
   209  H   0.996    C  200 0.984
   210  H   0.999    C  200 0.987
   211  H   0.999    C  200 0.984
   212  N   3.542    C  195 1.330    C  218 0.974    C  213 0.973    O  196 0.190
   213  C   3.955    C  216 0.991    N  212 0.973    H  220 0.959    C  214 0.871    O  219 0.055    O  215 0.052
   214  C   3.934    O  219 1.519    O  215 1.500    C  213 0.871
   215  O   1.800    C  214 1.500    O  219 0.218    C  213 0.052
   216  C   3.995    C  217 1.005    C  213 0.991    H  222 0.977    H  221 0.977
   217  C   3.994    C  216 1.005    C  218 1.000    H  223 0.982    H  224 0.978
   218  C   3.963    C  217 1.000    N  212 0.974    H  225 0.963    H  226 0.962
   219  O   1.818    C  214 1.519    O  215 0.218    C  213 0.055
   220  H   1.000    C  213 0.959
   221  H   0.998    C  216 0.977
   222  H   0.998    C  216 0.977
   223  H   0.998    C  217 0.982
   224  H   0.996    C  217 0.978
   225  H   0.997    C  218 0.963
   226  H   0.995    C  218 0.962
 MOs/occ written to file <molden.input>
 
molecular dipole:
                 x           y           z       tot (Debye)
 q only:      139.636      50.376      90.169
   full:      141.228      52.309      88.471     443.969
molecular quadrupole (traceless):
                xx          xy          yy          xz          yz          zz
 q only:     5712.733    5830.251   -4687.121    8200.968    3555.052   -1025.613
  q+dip:     5861.623    6028.621   -4598.930    8162.706    3567.791   -1262.692
   full:     5860.799    6028.321   -4599.179    8163.940    3566.771   -1261.620
speedup  9.48
cpu  time for grad   13.47 s
wall time for grad    1.42 s

SCC energy    :    -353.6522986
rep           :       4.1238390
ES            :       1.4034011
AES           :      -0.0953899
AXC           :       0.1094927
disp          :      -0.2986804
XB            :       0.0000000
fix           :       0.0000000
Gborn         :       0.0000000
Gsasa         :       0.0000000
Ghb           :       0.0000000
Gshift        :       0.0000000
Gsolv         :      -0.5952131     -373.50
Etot ala COSMO:    -353.6522986
grad norm     :       0.0039803
total E       :    -349.5046329
atomizationE  :      63.1352415    39617.96
(atE without considering molecular charge,
 total energy contains solvation terms)
H-L gap (eV)  :          2.4730

------------------------------------------------------------------------
 * finished run on 2019/03/17 at 19:22:38.268     
------------------------------------------------------------------------
 total:
 * wall-time:     0 d,  0 h,  0 min,  1.597 sec
 *  cpu-time:     0 d,  0 h,  0 min, 15.108 sec
 * ratio c/w:     9.458 speedup
 SCF:
 * wall-time:     0 d,  0 h,  0 min,  1.523 sec
 *  cpu-time:     0 d,  0 h,  0 min, 14.681 sec
 * ratio c/w:     9.638 speedup

