      -----------------------------------------------------------      
     |                   =====================                   |     
     |                           x T B                           |     
     |                   =====================                   |     
     |                         S. Grimme                         |     
     |          Mulliken Center for Theoretical Chemistry        |     
     |                    University of Bonn                     |     
     |                 Version 6.0.1 (SAW181210)                 |     
      -----------------------------------------------------------      

   This program is distributed in the hope that it will be useful,
   but WITHOUT ANY WARRANTY; without even the implied warranty of
   MERCHANTABILITY or FITNESS FOR A PARTICULAR PURPOSE.
   
   FOR NON-COMMERCIAL, ACADEMIA USE ONLY.
   
   Cite this work as:
   S. Grimme, C. Bannwarth, P. Shushkov, J. Comput. Theory Chem., 2017,
   13, 1989-2009.
   C. Bannwarth, S. Ehlert and S. Grimme., ChemRxiv, 2018, preprint.
   http://doi.org/10.26434/chemrxiv.7246238.v1
   
   for sTDA-xTB:
   S. Grimme and C. Bannwarth, J. Chem. Phys., 2016, 145, 054103.
   
   in the mass-spec context:
   V. Asgeirsson, C. Bauer and S. Grimme, Chem. Sci., 2017, 8, 4879.
   
   if GBSA is used:
   P. Shushkov, F. März and S. Grimme, unpublished.
   
   for ANC optimizer:
   S. Grimme, unpublished.
   Rational Function algorithm used in ANCopt:
   F. Eckert, P. Pulay, H.-J. Werner, J. Comput. Chem., 1997, 18, 1473.
   
   with help from (in alphabetical order)
   C. Bannwarth, F. Bohle, G. Brandenburg, E. Caldeweyher, M. Checinski,
   S. Dohm, S. Ehlert, S. Ehrlich, F. März, H. Neugebauer, J. Pisarek,
   P. Pracht, P. Shushkov, and S. Spicher.
   
 * started run on 2019/03/17 at 17:00:56.097     
========================================================================
 # omp threads = 12
========================================================================
number of atoms            : 226
number of electrons        : 616
charge                     : 2
spin                       : .0
first test random number   : .4827

########################################################################
# WARNING! Please study the warnings concerning your input carefully
#  - XTBPATH is not set, using XTBHOME instead
#  - Process number higher than OMP_NUM_THREADS, I hope you know what you are doing.
########################################################################

           ------------------------------------------------- 
          |                 G F N 2 - x T B                 |
          | Geometry, Frequencies, Noncovalent interactions |
          |            JCTC 2018 parametrisation            |
           ------------------------------------------------- 
 
      method parameters     
 k(s)        :  1.8500
 k(p)        :  2.2300
 k(d)        :  2.2300
 k(f)        :  2.0000
 kEN (H0ij)  : -2.0000
 D4 a1       :  0.5200
 D4 a2       :  5.0000
 D4 s6       :  1.0000
 D4 s8       :  2.7000
 D4 s9       :  5.0000
 alphaj      :  2.0000

 Solvent             : h2o
 Using internal parameter file: .param_gbsa2_h2o
 Gsolv ref. state (COSMO-RS): gsolv [1 M gas/solution]
 temperature (mdtemp)       :    298.150000000000     
 dielectric constant        :    80.2000000000000     
 rho                        :    1.00000000000000     
 mass                       :    18.0000000000000     
 surface tension            :    15.5689454083859     
 probe radius               :   0.975313790000000     
 vdW radii scaling          :    1.00000000000000     
 Gshift (Eh)                :   1.857443126794793E-003
 c1                         :    1.55243817000000     
 soset                      :   0.130326360000000     
 HB correction              :  T

            Z     q(EN)     CN     RAES       Cart. coordinates
     1  N   5.0   -0.10    4.18    3.38    59.56525    28.06272    36.72138
     2  C   4.0    0.01    4.31    4.21    60.82897    30.56898    36.77287
     3  C   4.0    0.15    3.45    3.09    58.78255    32.49964    35.97864
     4  O   6.0   -0.32    1.34    1.80    56.68648    31.71000    35.41157
     5  C   4.0    0.03    4.15    3.89    63.01832    30.51104    34.85943
     6  O   6.0   -0.25    2.11    1.84    61.97060    29.60335    32.57281
     7  H   1.0    0.08    1.07    1.44    57.61727    28.41921    36.65597
     8  H   1.0    0.08    1.05    1.44    60.03828    27.20303    35.01937
     9  H   1.0    0.07    1.01    1.43    60.03509    26.90584    38.21011
    10  H   1.0    0.05    1.04    1.43    61.53378    31.01755    38.65969
    11  H   1.0    0.05    1.01    1.43    63.83325    32.39528    34.61627
    12  H   1.0    0.05    1.01    1.43    64.50144    29.24432    35.55226
    13  H   1.0    0.13    1.02    1.43    63.31076    29.17494    31.41789
    14  N   5.0   -0.15    3.46    2.06    59.46812    34.91091    35.97930
    15  C   4.0    0.03    4.50    4.54    57.75129    36.90002    35.16245
    16  C   4.0    0.16    3.51    3.12    56.90542    36.34688    32.44016
    17  O   6.0   -0.29    1.32    1.80    54.68432    36.19165    31.85437
    18  C   4.0   -0.03    4.32    4.23    59.00072    39.51456    35.37914
    19  C   4.0   -0.04    4.17    3.94    59.44928    40.27814    38.14815
    20  C   4.0   -0.06    4.14    3.88    57.41611    41.47832    33.96918
    21  C   4.0   -0.06    4.01    3.65    57.06006    40.64976    39.71589
    22  H   1.0    0.07    1.06    1.44    61.21162    35.43342    36.56005
    23  H   1.0    0.05    1.05    1.44    56.03701    36.85641    36.32146
    24  H   1.0    0.05    1.05    1.44    60.85786    39.43620    34.46314
    25  H   1.0    0.05    1.03    1.43    60.63706    38.87240    39.07965
    26  H   1.0    0.06    1.03    1.43    60.50753    42.04876    38.13323
    27  H   1.0    0.06    1.00    1.43    55.43799    41.38592    34.51226
    28  H   1.0    0.06    1.00    1.43    58.11721    43.36804    34.36382
    29  H   1.0    0.06    1.00    1.43    57.51354    41.17981    31.93697
    30  H   1.0    0.05    1.00    1.43    55.83334    42.06421    38.87554
    31  H   1.0    0.05    1.00    1.43    56.00679    38.90115    39.92194
    32  H   1.0    0.06    1.00    1.43    57.57510    41.30492    41.59413
    33  N   5.0   -0.14    3.51    2.09    58.82162    35.85817    30.85084
    34  C   4.0    0.03    4.48    4.51    58.44467    35.37638    28.17239
    35  C   4.0    0.17    3.53    3.13    56.08242    33.72336    27.85863
    36  O   6.0   -0.27    1.22    1.80    54.32171    34.27901    26.47542
    37  C   4.0   -0.02    4.27    4.13    60.79043    34.05339    27.05676
    38  C   4.0   -0.06    4.13    3.86    60.28569    33.30099    24.31603
    39  C   4.0   -0.06    4.11    3.82    63.12569    35.75213    27.18026
    40  H   1.0    0.07    1.07    1.44    60.59834    36.34205    31.35733
    41  H   1.0    0.06    1.05    1.44    58.08822    37.14659    27.14794
    42  H   1.0    0.05    1.05    1.44    61.15006    32.33795    28.15309
    43  H   1.0    0.06    1.00    1.43    61.90125    32.29711    23.54157
    44  H   1.0    0.06    1.00    1.43    58.63156    32.09272    24.15879
    45  H   1.0    0.06    1.00    1.43    59.95489    34.96950    23.16088
    46  H   1.0    0.06    1.00    1.43    64.68792    34.83850    26.20861
    47  H   1.0    0.06    1.00    1.43    62.76662    37.54481    26.24058
    48  H   1.0    0.05    1.00    1.43    63.73005    36.13269    29.10579
    49  N   5.0   -0.13    3.51    2.08    56.18240    31.55786    29.17966
    50  C   4.0    0.04    4.34    4.28    54.18956    29.68643    29.00251
    51  C   4.0    0.17    3.44    3.09    51.73150    30.67743    30.17154
    52  O   6.0   -0.31    1.30    1.80    49.73524    30.62321    28.98899
    53  C   4.0   -0.06    4.12    3.84    55.00485    27.25440    30.31312
    54  H   1.0    0.09    1.07    1.44    57.68402    31.16447    30.29309
    55  H   1.0    0.06    1.05    1.44    53.78146    29.35044    26.99733
    56  H   1.0    0.05    1.00    1.43    53.55016    25.82546    30.07596
    57  H   1.0    0.06    1.00    1.43    56.73933    26.56093    29.46052
    58  H   1.0    0.06    1.00    1.43    55.27951    27.60614    32.31429
    59  N   5.0   -0.14    3.48    2.07    51.91276    31.41105    32.57549
    60  C   4.0    0.04    4.42    4.41    49.71526    32.10838    34.06508
    61  C   4.0    0.16    3.51    3.12    48.03787    34.03406    32.71048
    62  O   6.0   -0.30    1.32    1.80    45.75515    33.70535    32.47124
    63  C   4.0   -0.04    4.28    4.16    50.55254    33.14389    36.63546
    64  C   4.0   -0.04    4.20    3.99    48.31597    33.63372    38.40797
    65  C   4.0    0.00    4.20    4.01    47.10467    31.21536    39.41832
    66  N   5.0   -0.14    3.41    2.03    48.92253    29.83579    40.94217
    67  C   4.0    0.10    3.33    3.06    48.94899    27.35868    41.36247
    68  N   5.0   -0.18    3.25    1.97    47.27480    25.82610    40.28847
    69  N   5.0   -0.17    3.24    1.97    50.81595    26.38156    42.74995
    70  H   1.0    0.11    1.10    1.44    53.63683    31.70412    33.37190
    71  H   1.0    0.05    1.06    1.44    48.55466    30.40876    34.30640
    72  H   1.0    0.06    1.03    1.43    51.84874    31.78748    37.48568
    73  H   1.0    0.05    1.03    1.43    51.55428    34.91498    36.31310
    74  H   1.0    0.05    1.03    1.43    48.95002    34.79486    39.98790
    75  H   1.0    0.06    1.03    1.43    46.85775    34.68701    37.40500
    76  H   1.0    0.06    1.02    1.43    45.43895    31.71464    40.53625
    77  H   1.0    0.05    1.03    1.43    46.47826    30.05523    37.83742
    78  H   1.0    0.08    1.07    1.44    50.08388    30.94061    41.98399
    79  H   1.0    0.09    1.03    1.43    45.78318    26.49622    39.31492
    80  H   1.0    0.10    1.03    1.43    47.34722    23.94845    40.58562
    81  H   1.0    0.10    1.03    1.43    52.01014    27.51363    43.70727
    82  H   1.0    0.10    1.03    1.43    50.80000    24.53523    43.21432
    83  N   5.0   -0.13    3.51    2.09    49.21864    36.11920    31.92265
    84  C   4.0    0.05    4.42    4.42    47.81275    38.12191    30.70292
    85  C   4.0    0.17    3.50    3.11    45.87512    37.01365    28.85957
    86  O   6.0   -0.28    1.21    1.80    43.65822    37.66005    28.82529
    87  C   4.0    0.05    4.16    3.93    49.60589    39.89268    29.28885
    88  O   6.0   -0.24    2.06    1.83    51.14387    41.12147    31.07935
    89  H   1.0    0.12    1.10    1.44    51.12647    36.31670    32.02584
    90  H   1.0    0.07    1.05    1.44    46.77664    39.22530    32.12404
    91  H   1.0    0.07    1.01    1.43    50.75824    38.79983    27.94891
    92  H   1.0    0.06    1.01    1.43    48.46935    41.24519    28.20543
    93  H   1.0    0.13    1.02    1.43    51.99847    42.51067    30.27130
    94  N   5.0   -0.12    3.57    2.13    46.87317    35.31741    27.27161
    95  C   4.0    0.05    4.44    4.45    45.43626    34.19872    25.23734
    96  C   4.0    0.16    3.46    3.10    43.55456    32.27082    26.30804
    97  O   6.0   -0.30    1.31    1.80    41.30557    32.32085    25.73175
    98  C   4.0   -0.03    4.32    4.23    47.23312    32.98888    23.33598
    99  C   4.0    0.17    3.23    3.04    48.88851    34.98076    22.05787
   100  O   6.0   -0.27    1.23    1.80    49.03128    37.16398    22.78192
   101  N   5.0   -0.17    3.18    1.95    50.19774    34.10150    20.07517
   102  H   1.0    0.11    1.08    1.44    48.73920    34.92893    27.33512
   103  H   1.0    0.07    1.05    1.44    44.31380    35.68670    24.32280
   104  H   1.0    0.06    1.03    1.43    48.46320    31.65418    24.32091
   105  H   1.0    0.05    1.03    1.43    46.14820    31.97686    21.90721
   106  H   1.0    0.12    1.03    1.43    51.33463    35.29184    19.11992
   107  H   1.0    0.10    1.03    1.43    50.02468    32.30853    19.47180
   108  N   5.0   -0.13    3.50    2.08    44.53763    30.58498    27.88639
   109  C   4.0    0.04    4.44    4.45    42.99832    28.69247    29.13694
   110  C   4.0    0.17    3.59    3.16    40.43257    29.79603    29.85718
   111  O   6.0   -0.31    1.33    1.80    38.43761    28.76557    29.26521
   112  C   4.0   -0.03    4.35    4.29    44.33297    27.75956    31.53899
   113  C   4.0   -0.01    3.60    3.17    42.56967    26.13133    33.06601
   114  C   4.0   -0.03    3.47    3.10    41.34726    27.11112    35.17438
   115  C   4.0   -0.03    3.47    3.10    42.07322    23.66059    32.33076
   116  C   4.0   -0.03    3.37    3.07    39.63829    25.64388    36.50791
   117  C   4.0   -0.03    3.37    3.07    40.36645    22.19636    33.66504
   118  C   4.0   -0.03    3.37    3.07    39.13916    23.18853    35.75305
   119  H   1.0    0.12    1.11    1.45    46.40355    30.66873    28.35778
   120  H   1.0    0.06    1.05    1.44    42.62598    27.11827    27.83665
   121  H   1.0    0.05    1.03    1.43    46.01730    26.71226    30.97746
   122  H   1.0    0.06    1.04    1.43    44.86812    29.42800    32.62169
   123  H   1.0    0.07    1.03    1.43    41.69566    29.04103    35.74693
   124  H   1.0    0.06    1.03    1.43    43.01468    22.88626    30.69372
   125  H   1.0    0.06    1.03    1.43    38.67931    26.43071    38.12717
   126  H   1.0    0.06    1.03    1.43    39.98539    20.28413    33.06570
   127  H   1.0    0.06    1.03    1.43    37.79670    22.05192    36.78423
   128  N   5.0   -0.13    3.54    2.11    40.53336    31.86451    31.28523
   129  C   4.0    0.05    4.44    4.45    38.27444    32.98198    32.33948
   130  C   4.0    0.16    3.50    3.11    36.12150    33.11564    30.41094
   131  O   6.0   -0.31    1.27    1.80    33.94180    32.58369    31.00078
   132  C   4.0   -0.03    4.32    4.24    38.87392    35.63040    33.32514
   133  C   4.0    0.17    3.22    3.04    40.48048    35.52499    35.72193
   134  O   6.0   -0.29    1.22    1.80    41.50301    33.61647    36.49431
   135  N   5.0   -0.17    3.19    1.95    40.67073    37.75289    36.91556
   136  H   1.0    0.12    1.09    1.44    42.21596    32.64760    31.76752
   137  H   1.0    0.06    1.05    1.44    37.58802    31.79886    33.90556
   138  H   1.0    0.07    1.03    1.43    39.91960    36.67800    31.88106
   139  H   1.0    0.05    1.03    1.43    37.11485    36.62994    33.72001
   140  H   1.0    0.11    1.03    1.43    41.66463    37.86520    38.53573
   141  H   1.0    0.10    1.03    1.43    39.79713    39.30936    36.26708
   142  N   5.0   -0.14    3.54    2.10    36.76223    34.01964    28.14114
   143  C   4.0    0.04    4.50    4.53    34.91422    34.43054    26.16485
   144  C   4.0    0.16    3.50    3.12    33.28364    32.09365    25.70225
   145  O   6.0   -0.32    1.30    1.80    31.05076    32.27391    25.09154
   146  C   4.0   -0.02    4.27    4.13    36.26493    35.28714    23.73358
   147  C   4.0   -0.06    4.12    3.85    34.40313    35.54994    21.54676
   148  C   4.0   -0.06    4.12    3.84    37.61002    37.80307    24.18761
   149  H   1.0    0.11    1.10    1.44    38.59878    34.01767    27.59428
   150  H   1.0    0.05    1.05    1.44    33.59833    35.91560    26.77605
   151  H   1.0    0.06    1.06    1.44    37.67078    33.84424    23.26409
   152  H   1.0    0.06    1.00    1.43    35.38441    36.18687    19.85955
   153  H   1.0    0.06    1.00    1.43    33.47825    33.76473    21.12356
   154  H   1.0    0.05    1.00    1.43    32.94211    36.92144    22.00650
   155  H   1.0    0.06    1.00    1.43    38.51440    38.42161    22.45091
   156  H   1.0    0.05    1.00    1.43    36.25826    39.24066    24.76051
   157  H   1.0    0.06    1.00    1.43    39.05600    37.64022    25.63728
   158  N   5.0   -0.14    3.51    2.08    34.44405    29.86216    25.94706
   159  C   4.0    0.05    4.50    4.54    33.08013    27.51345    25.63774
   160  C   4.0    0.16    3.59    3.16    30.54030    27.46471    27.02969
   161  O   6.0   -0.28    1.30    1.80    28.80396    26.16552    26.21920
   162  C   4.0   -0.03    4.14    3.87    34.69481    25.34315    26.63838
   163  S   6.0   -0.01    2.48    3.10    32.82908    22.44198    26.83756
   164  H   1.0    0.12    1.11    1.45    36.18752    29.75034    26.75219
   165  H   1.0    0.06    1.05    1.44    32.62632    27.22064    23.63021
   166  H   1.0    0.06    1.06    1.44    36.27842    24.99974    25.37024
   167  H   1.0    0.06    1.07    1.44    35.38201    25.80541    28.52317
   168  H   1.0    0.06    0.98    1.43    34.81000    21.01622    27.48558
   169  N   5.0   -0.14    3.54    2.10    30.47439    28.62995    29.27379
   170  C   4.0    0.04    4.44    4.44    28.27159    28.45172    30.86948
   171  C   4.0    0.16    3.39    3.08    26.22104    30.44575    30.36533
   172  O   6.0   -0.26    1.23    1.80    24.42618    30.63314    31.81796
   173  C   4.0   -0.03    4.28    4.15    29.05887    28.56165    33.65421
   174  C   4.0   -0.04    4.19    3.97    31.16622    26.70218    34.36277
   175  C   4.0   -0.00    4.23    4.05    30.79096    24.01194    33.39807
   176  N   5.0   -0.13    3.41    2.03    28.45396    22.93738    34.35372
   177  C   4.0    0.11    3.34    3.06    27.31803    20.90900    33.41367
   178  N   5.0   -0.17    3.26    1.97    28.39659    19.54269    31.59910
   179  N   5.0   -0.16    3.24    1.96    25.17137    20.09705    34.46137
   180  H   1.0    0.11    1.10    1.44    31.80072    29.92588    29.77800
   181  H   1.0    0.07    1.07    1.44    27.34626    26.64881    30.41790
   182  H   1.0    0.06    1.03    1.43    29.72434    30.47540    34.04023
   183  H   1.0    0.07    1.03    1.43    27.35089    28.27095    34.76644
   184  H   1.0    0.05    1.03    1.43    32.94408    27.39424    33.58562
   185  H   1.0    0.05    1.03    1.43    31.33295    26.68759    36.41558
   186  H   1.0    0.05    1.05    1.44    30.75652    24.02340    31.33383
   187  H   1.0    0.05    1.02    1.43    32.38369    22.84942    34.02266
   188  H   1.0    0.09    1.07    1.44    27.58605    23.90992    35.74699
   189  H   1.0    0.09    1.05    1.44    29.91103    20.19591    30.64368
   190  H   1.0    0.11    1.03    1.43    27.44222    18.09911    30.80655
   191  H   1.0    0.11    1.03    1.43    24.24502    21.15600    35.74186
   192  H   1.0    0.11    1.03    1.43    24.22288    18.64031    33.68707
   193  N   5.0   -0.14    3.49    2.07    26.54034    31.89878    28.32615
   194  C   4.0    0.04    4.42    4.42    24.77514    33.86363    27.66222
   195  C   4.0    0.16    3.47    3.10    22.72948    33.21630    25.70186
   196  O   6.0   -0.24    1.24    1.80    20.62064    34.18329    26.00534
   197  C   4.0   -0.04    4.36    4.31    26.18186    36.22823    26.75902
   198  C   4.0   -0.02    4.18    3.96    27.98609    37.34479    28.73540
   199  C   4.0   -0.07    4.10    3.81    29.38912    39.58388    27.56979
   200  C   4.0   -0.06    4.10    3.81    26.59212    38.18123    31.11829
   201  H   1.0    0.11    1.11    1.44    28.08748    31.71628    27.21314
   202  H   1.0    0.08    1.07    1.44    23.68563    34.28751    29.37389
   203  H   1.0    0.05    1.03    1.43    27.25948    35.72496    25.07199
   204  H   1.0    0.06    1.03    1.43    24.76691    37.63247    26.22535
   205  H   1.0    0.06    1.05    1.44    29.35964    35.88117    29.24703
   206  H   1.0    0.05    1.00    1.43    30.77723    40.32956    28.88701
   207  H   1.0    0.05    1.00    1.43    30.34599    39.01254    25.84271
   208  H   1.0    0.06    1.00    1.43    28.05985    41.07893    27.10036
   209  H   1.0    0.06    1.00    1.43    27.88445    39.13578    32.39768
   210  H   1.0    0.06    1.00    1.43    25.06936    39.47381    30.63217
   211  H   1.0    0.06    1.00    1.43    25.77892    36.57188    32.10251
   212  N   5.0   -0.09    3.67    2.23    23.29150    31.90340    23.63323
   213  C   4.0    0.05    4.58    4.64    21.32906    31.29952    21.82427
   214  C   4.0    0.27    3.17    3.03    19.70502    28.96354    22.71870
   215  O   6.0   -0.23    1.17    1.80    17.95580    28.35220    21.26691
   216  C   4.0   -0.03    4.33    4.25    22.79034    30.71390    19.41679
   217  C   4.0   -0.03    4.26    4.13    25.11429    29.33884    20.43473
   218  C   4.0    0.00    4.37    4.33    25.59855    30.54906    23.02730
   219  O   6.0   -0.23    1.18    1.80    20.30649    27.94693    24.74777
   220  H   1.0    0.08    1.05    1.44    20.01665    32.88870    21.63999
   221  H   1.0    0.07    1.02    1.43    21.66035    29.55949    18.14304
   222  H   1.0    0.06    1.02    1.43    23.31969    32.46520    18.46425
   223  H   1.0    0.07    1.03    1.43    24.67344    27.34216    20.68315
   224  H   1.0    0.06    1.02    1.43    26.73923    29.51813    19.18870
   225  H   1.0    0.08    1.03    1.43    25.96824    29.08482    24.43450
   226  H   1.0    0.06    1.02    1.43    27.19115    31.86112    22.97063

  Z AO/shell   Hii/eV     exponent
  1     Wed Apr 25 08:07:45 CEST 2018   EN: 2.200 GM2: 0.406  GM3: 0.0800  RAES: 1.40
     1s    -10.707211    1.230000
  6     Wed Apr 25 08:07:45 CEST 2018   EN: 2.550 GM2: 0.538  GM3: 0.1500  RAES: 3.00
     2s    -13.970922    2.096432
     2p    -10.063292    1.800000
  7     Wed Apr 25 08:07:45 CEST 2018   EN: 3.040 GM2: 0.461  GM3:-0.0640  RAES: 1.90
     2s    -16.686243    2.339881
     2p    -12.523956    2.014332
  8     Wed Apr 25 08:07:45 CEST 2018   EN: 3.440 GM2: 0.452  GM3:-0.0517  RAES: 1.80
     2s    -20.229985    2.439742
     2p    -15.503117    2.137023
 16     Tue Apr 24 11:44:34 CEST 2018   EN: 2.580 GM2: 0.340  GM3:-0.0502  RAES: 3.10
     3s    -20.029654    1.981333
     3p    -11.377694    2.025643
     3d     -0.420282    1.702555
 no old-style atom pair restraining (fixing) potential
           ------------------------------------------------- 
          |        Self-Consistent Charge Iterations        |
           ------------------------------------------------- 

 Ncao       : 562
 Nao        : 561
 Nshell     : 337
 Nel        : 616
 T(el)      :   500.0
 intcut     :    35.0
 scfconv/Eh :  0.100E-06
   qconv/e  :  0.100E-04
 intneglect :  0.100E-08
 broydamp   :      0.400
 iter      E             dE          RMSdq      gap      omega  full diag
   1   -352.7786640 -0.352779E+03  0.453E+00    4.28       0.0  T
   2   -353.5377216 -0.759058E+00  0.214E+00    3.37       1.0  T
   3   -353.5809125 -0.431909E-01  0.115E+00    3.26       1.0  T
   4   -353.6300733 -0.491608E-01  0.270E-01    2.33       1.0  T
   5   -353.6329025 -0.282917E-02  0.132E-01    2.40       1.0  T
   6   -353.6334324 -0.529951E-03  0.609E-02    2.42       1.0  T
   7   -353.6336815 -0.249112E-03  0.308E-02    2.43       1.0  T
   8   -353.6337116 -0.300788E-04  0.137E-02    2.46       1.0  T
   9   -353.6337193 -0.772266E-05  0.561E-03    2.46       1.2  T
  10   -353.6337199 -0.597870E-06  0.265E-03    2.46       2.5  T
  11   -353.6337203 -0.373672E-06  0.928E-04    2.46       7.2  T
  12   -353.6337203 -0.462441E-07  0.435E-04    2.46      15.3  T
  13   -353.6337203 -0.751851E-08  0.167E-04    2.46      39.8  T
  14   -353.6337203 -0.730665E-09  0.684E-05    2.46      97.2  T
  15   -353.6337203 -0.134378E-09  0.268E-05    2.46     247.9  T
speedup  7.21
cpu  time for SCC    8.92 s
wall time for SCC    1.24 s

   *** convergence criteria satisfied after 15 iterations ***

          eigenvalues
 #    :         296        297        298        299        300        301        302        303
 occ. :        2.000      2.000      2.000      2.000      2.000      2.000      2.000      2.000
 eps  :       -11.016    -10.976    -10.964    -10.923    -10.900    -10.865    -10.730    -10.715
 #    :         304        305        306        307        308        309        310        311
 occ. :        2.000      2.000      2.000      2.000      2.000      0.000      0.000      0.000
 eps  :       -10.693    -10.359    -10.308    -10.307     -9.504     -7.044     -6.664     -6.626
 #    :         312        313        314        315        316        317        318        319
 occ. :        0.000      0.000      0.000      0.000      0.000      0.000      0.000      0.000
 eps  :        -6.465     -6.398     -6.350     -6.257     -6.221     -6.195     -6.179     -6.128


   #   Z            q   n(s)   n(p)   n(d)      C6AA      α(0)
   1   7 N     -0.156  1.228  3.928  0.000    24.364     7.331
   2   6 C     -0.034  1.075  2.958  0.000    21.195     6.558
   3   6 C      0.263  1.034  2.703  0.000    22.561     7.778
   4   8 O     -0.443  1.727  4.716  0.000    22.567     6.369
   5   6 C      0.046  1.044  2.910  0.000    20.014     6.410
   6   8 O     -0.463  1.704  4.759  0.000    22.115     6.348
   7   1 H      0.311  0.689  0.000  0.000     0.683     1.294
   8   1 H      0.307  0.693  0.000  0.000     0.693     1.304
   9   1 H      0.314  0.686  0.000  0.000     0.673     1.285
  10   1 H      0.148  0.852  0.000  0.000     1.405     1.854
  11   1 H      0.070  0.930  0.000  0.000     2.085     2.258
  12   1 H      0.084  0.916  0.000  0.000     1.935     2.176
  13   1 H      0.345  0.655  0.000  0.000     0.601     1.217
  14   7 N     -0.148  1.233  3.915  0.000    24.203     7.307
  15   6 C     -0.004  1.073  2.931  0.000    20.654     6.471
  16   6 C      0.278  1.039  2.682  0.000    22.294     7.732
  17   8 O     -0.461  1.743  4.718  0.000    22.930     6.420
  18   6 C     -0.029  1.068  2.961  0.000    21.057     6.527
  19   6 C     -0.069  1.052  3.017  0.000    21.827     6.652
  20   6 C     -0.117  1.036  3.080  0.000    22.791     6.807
  21   6 C     -0.120  1.036  3.084  0.000    22.862     6.819
  22   1 H      0.224  0.776  0.000  0.000     0.990     1.559
  23   1 H      0.106  0.894  0.000  0.000     1.729     2.056
  24   1 H      0.051  0.949  0.000  0.000     2.304     2.374
  25   1 H      0.055  0.945  0.000  0.000     2.257     2.349
  26   1 H      0.043  0.957  0.000  0.000     2.403     2.424
  27   1 H      0.057  0.943  0.000  0.000     2.236     2.338
  28   1 H      0.049  0.951  0.000  0.000     2.330     2.387
  29   1 H      0.030  0.970  0.000  0.000     2.583     2.513
  30   1 H      0.040  0.960  0.000  0.000     2.444     2.445
  31   1 H      0.055  0.945  0.000  0.000     2.254     2.348
  32   1 H      0.040  0.960  0.000  0.000     2.446     2.446
  33   7 N     -0.180  1.248  3.933  0.000    24.909     7.412
  34   6 C      0.012  1.068  2.920  0.000    20.377     6.428
  35   6 C      0.288  1.037  2.675  0.000    22.114     7.701
  36   8 O     -0.506  1.762  4.744  0.000    23.923     6.558
  37   6 C     -0.029  1.067  2.962  0.000    21.059     6.527
  38   6 C     -0.116  1.038  3.078  0.000    22.779     6.805
  39   6 C     -0.124  1.041  3.083  0.000    22.935     6.828
  40   1 H      0.216  0.784  0.000  0.000     1.028     1.588
  41   1 H      0.053  0.947  0.000  0.000     2.286     2.365
  42   1 H      0.074  0.926  0.000  0.000     2.040     2.234
  43   1 H      0.057  0.943  0.000  0.000     2.235     2.338
  44   1 H      0.037  0.963  0.000  0.000     2.493     2.469
  45   1 H      0.035  0.965  0.000  0.000     2.513     2.479
  46   1 H      0.060  0.940  0.000  0.000     2.196     2.318
  47   1 H      0.040  0.960  0.000  0.000     2.445     2.445
  48   1 H      0.055  0.945  0.000  0.000     2.257     2.349
  49   7 N     -0.184  1.243  3.941  0.000    24.989     7.424
  50   6 C      0.019  1.059  2.922  0.000    20.266     6.410
  51   6 C      0.272  1.045  2.684  0.000    22.410     7.752
  52   8 O     -0.509  1.747  4.762  0.000    23.977     6.565
  53   6 C     -0.156  1.049  3.107  0.000    23.565     6.921
  54   1 H      0.229  0.771  0.000  0.000     0.971     1.544
  55   1 H      0.062  0.938  0.000  0.000     2.171     2.304
  56   1 H      0.078  0.922  0.000  0.000     2.004     2.214
  57   1 H      0.089  0.911  0.000  0.000     1.893     2.152
  58   1 H      0.097  0.903  0.000  0.000     1.813     2.106
  59   7 N     -0.169  1.245  3.925  0.000    24.667     7.376
  60   6 C      0.003  1.066  2.931  0.000    20.535     6.453
  61   6 C      0.278  1.040  2.682  0.000    22.298     7.733
  62   8 O     -0.497  1.750  4.748  0.000    23.722     6.530
  63   6 C     -0.099  1.062  3.037  0.000    22.377     6.734
  64   6 C     -0.084  1.050  3.034  0.000    22.105     6.694
  65   6 C     -0.028  1.051  2.977  0.000    21.151     6.563
  66   7 N     -0.138  1.209  3.929  0.000    23.981     7.273
  67   6 C      0.229  1.019  2.752  0.000    23.189     7.884
  68   7 N     -0.238  1.221  4.018  0.000    26.235     7.607
  69   7 N     -0.258  1.235  4.023  0.000    26.706     7.675
  70   1 H      0.250  0.750  0.000  0.000     0.884     1.472
  71   1 H      0.094  0.906  0.000  0.000     1.844     2.124
  72   1 H      0.112  0.888  0.000  0.000     1.679     2.026
  73   1 H      0.072  0.928  0.000  0.000     2.061     2.245
  74   1 H      0.081  0.919  0.000  0.000     1.971     2.196
  75   1 H      0.056  0.944  0.000  0.000     2.250     2.346
  76   1 H      0.083  0.917  0.000  0.000     1.946     2.182
  77   1 H      0.081  0.919  0.000  0.000     1.964     2.192
  78   1 H      0.241  0.759  0.000  0.000     0.920     1.503
  79   1 H      0.230  0.770  0.000  0.000     0.965     1.539
  80   1 H      0.253  0.747  0.000  0.000     0.871     1.462
  81   1 H      0.256  0.744  0.000  0.000     0.861     1.453
  82   1 H      0.252  0.748  0.000  0.000     0.876     1.466
  83   7 N     -0.182  1.246  3.936  0.000    24.943     7.418
  84   6 C      0.019  1.060  2.921  0.000    20.254     6.407
  85   6 C      0.282  1.039  2.679  0.000    22.229     7.721
  86   8 O     -0.498  1.747  4.751  0.000    23.736     6.532
  87   6 C      0.078  1.035  2.887  0.000    19.490     6.324
  88   8 O     -0.455  1.703  4.752  0.000    21.942     6.323
  89   1 H      0.247  0.753  0.000  0.000     0.894     1.481
  90   1 H      0.078  0.922  0.000  0.000     1.998     2.211
  91   1 H      0.040  0.960  0.000  0.000     2.455     2.450
  92   1 H      0.025  0.975  0.000  0.000     2.653     2.547
  93   1 H      0.338  0.662  0.000  0.000     0.617     1.234
  94   7 N     -0.168  1.236  3.932  0.000    24.631     7.371
  95   6 C      0.035  1.054  2.911  0.000    19.987     6.366
  96   6 C      0.271  1.043  2.686  0.000    22.430     7.755
  97   8 O     -0.510  1.750  4.760  0.000    24.016     6.570
  98   6 C     -0.115  1.064  3.050  0.000    22.682     6.779
  99   6 C      0.294  1.033  2.673  0.000    22.011     7.682
 100   8 O     -0.495  1.753  4.742  0.000    23.674     6.524
 101   7 N     -0.290  1.265  4.025  0.000    27.479     7.785
 102   1 H      0.210  0.790  0.000  0.000     1.057     1.611
 103   1 H      0.065  0.935  0.000  0.000     2.139     2.287
 104   1 H      0.101  0.899  0.000  0.000     1.780     2.086
 105   1 H      0.080  0.920  0.000  0.000     1.974     2.197
 106   1 H      0.234  0.766  0.000  0.000     0.948     1.525
 107   1 H      0.235  0.765  0.000  0.000     0.945     1.523
 108   7 N     -0.182  1.255  3.927  0.000    24.936     7.416
 109   6 C      0.023  1.063  2.914  0.000    20.184     6.396
 110   6 C      0.286  1.040  2.674  0.000    22.163     7.710
 111   8 O     -0.510  1.744  4.766  0.000    24.014     6.570
 112   6 C     -0.092  1.060  3.032  0.000    22.236     6.712
 113   6 C      0.005  1.080  2.915  0.000    27.907     8.665
 114   6 C     -0.053  1.085  2.968  0.000    29.306     8.878
 115   6 C     -0.041  1.080  2.961  0.000    29.022     8.835
 116   6 C     -0.037  1.082  2.955  0.000    28.913     8.818
 117   6 C     -0.034  1.082  2.953  0.000    28.855     8.809
 118   6 C     -0.037  1.082  2.956  0.000    28.930     8.820
 119   1 H      0.251  0.749  0.000  0.000     0.878     1.468
 120   1 H      0.069  0.931  0.000  0.000     2.098     2.265
 121   1 H      0.082  0.918  0.000  0.000     1.959     2.189
 122   1 H      0.081  0.919  0.000  0.000     1.971     2.195
 123   1 H      0.057  0.943  0.000  0.000     2.236     2.338
 124   1 H      0.037  0.963  0.000  0.000     2.486     2.465
 125   1 H      0.046  0.954  0.000  0.000     2.370     2.407
 126   1 H      0.041  0.959  0.000  0.000     2.430     2.438
 127   1 H      0.045  0.955  0.000  0.000     2.387     2.416
 128   7 N     -0.173  1.243  3.930  0.000    24.742     7.388
 129   6 C      0.032  1.056  2.913  0.000    20.040     6.374
 130   6 C      0.277  1.043  2.680  0.000    22.310     7.735
 131   8 O     -0.498  1.743  4.755  0.000    23.739     6.532
 132   6 C     -0.111  1.062  3.049  0.000    22.604     6.767
 133   6 C      0.288  1.035  2.677  0.000    22.118     7.700
 134   8 O     -0.453  1.725  4.727  0.000    22.758     6.396
 135   7 N     -0.290  1.263  4.027  0.000    27.475     7.785
 136   1 H      0.239  0.761  0.000  0.000     0.926     1.507
 137   1 H      0.086  0.914  0.000  0.000     1.917     2.165
 138   1 H      0.084  0.916  0.000  0.000     1.937     2.176
 139   1 H      0.073  0.927  0.000  0.000     2.055     2.242
 140   1 H      0.244  0.756  0.000  0.000     0.905     1.490
 141   1 H      0.219  0.781  0.000  0.000     1.015     1.578
 142   7 N     -0.183  1.251  3.932  0.000    24.968     7.421
 143   6 C      0.022  1.064  2.915  0.000    20.212     6.401
 144   6 C      0.281  1.043  2.676  0.000    22.236     7.722
 145   8 O     -0.513  1.753  4.760  0.000    24.064     6.577
 146   6 C     -0.018  1.062  2.955  0.000    20.856     6.495
 147   6 C     -0.111  1.038  3.073  0.000    22.682     6.791
 148   6 C     -0.121  1.042  3.079  0.000    22.868     6.818
 149   1 H      0.223  0.777  0.000  0.000     0.995     1.563
 150   1 H      0.070  0.930  0.000  0.000     2.081     2.256
 151   1 H      0.057  0.943  0.000  0.000     2.231     2.336
 152   1 H      0.057  0.943  0.000  0.000     2.240     2.341
 153   1 H      0.030  0.970  0.000  0.000     2.592     2.517
 154   1 H      0.041  0.959  0.000  0.000     2.435     2.440
 155   1 H      0.055  0.945  0.000  0.000     2.260     2.351
 156   1 H      0.050  0.950  0.000  0.000     2.322     2.383
 157   1 H      0.053  0.947  0.000  0.000     2.279     2.361
 158   7 N     -0.200  1.259  3.941  0.000    25.344     7.477
 159   6 C      0.040  1.052  2.908  0.000    19.887     6.345
 160   6 C      0.286  1.038  2.677  0.000    22.161     7.710
 161   8 O     -0.500  1.759  4.741  0.000    23.779     6.538
 162   6 C     -0.022  1.071  2.950  0.000    20.959     6.518
 163  16 S     -0.321  1.952  4.306  0.063   155.010    20.955
 164   1 H      0.235  0.765  0.000  0.000     0.946     1.523
 165   1 H      0.050  0.950  0.000  0.000     2.316     2.380
 166   1 H      0.077  0.923  0.000  0.000     2.007     2.215
 167   1 H      0.095  0.905  0.000  0.000     1.834     2.118
 168   1 H      0.234  0.766  0.000  0.000     0.941     1.517
 169   7 N     -0.184  1.246  3.938  0.000    24.987     7.424
 170   6 C      0.022  1.059  2.919  0.000    20.211     6.401
 171   6 C      0.272  1.043  2.685  0.000    22.408     7.752
 172   8 O     -0.509  1.753  4.756  0.000    23.988     6.567
 173   6 C     -0.078  1.053  3.025  0.000    21.976     6.674
 174   6 C     -0.085  1.053  3.032  0.000    22.125     6.697
 175   6 C     -0.029  1.052  2.977  0.000    21.171     6.565
 176   7 N     -0.135  1.206  3.929  0.000    23.926     7.265
 177   6 C      0.231  1.019  2.750  0.000    23.154     7.878
 178   7 N     -0.239  1.227  4.012  0.000    26.250     7.609
 179   7 N     -0.261  1.236  4.026  0.000    26.781     7.686
 180   1 H      0.221  0.779  0.000  0.000     1.004     1.569
 181   1 H      0.080  0.920  0.000  0.000     1.984     2.202
 182   1 H      0.064  0.936  0.000  0.000     2.158     2.297
 183   1 H      0.073  0.927  0.000  0.000     2.050     2.239
 184   1 H      0.074  0.926  0.000  0.000     2.037     2.232
 185   1 H      0.094  0.906  0.000  0.000     1.842     2.122
 186   1 H      0.069  0.931  0.000  0.000     2.098     2.265
 187   1 H      0.106  0.894  0.000  0.000     1.728     2.056
 188   1 H      0.230  0.770  0.000  0.000     0.964     1.538
 189   1 H      0.238  0.762  0.000  0.000     0.930     1.511
 190   1 H      0.248  0.752  0.000  0.000     0.890     1.478
 191   1 H      0.245  0.755  0.000  0.000     0.904     1.490
 192   1 H      0.248  0.752  0.000  0.000     0.890     1.478
 193   7 N     -0.190  1.250  3.940  0.000    25.129     7.445
 194   6 C      0.033  1.057  2.910  0.000    20.024     6.372
 195   6 C      0.260  1.049  2.692  0.000    22.627     7.790
 196   8 O     -0.558  1.764  4.794  0.000    25.098     6.717
 197   6 C     -0.066  1.057  3.008  0.000    21.748     6.638
 198   6 C     -0.006  1.056  2.950  0.000    20.657     6.465
 199   6 C     -0.114  1.042  3.072  0.000    22.733     6.798
 200   6 C     -0.115  1.040  3.075  0.000    22.755     6.802
 201   1 H      0.212  0.788  0.000  0.000     1.045     1.601
 202   1 H      0.068  0.932  0.000  0.000     2.106     2.269
 203   1 H      0.043  0.957  0.000  0.000     2.408     2.426
 204   1 H      0.040  0.960  0.000  0.000     2.451     2.448
 205   1 H      0.034  0.966  0.000  0.000     2.537     2.491
 206   1 H      0.055  0.945  0.000  0.000     2.258     2.350
 207   1 H      0.035  0.965  0.000  0.000     2.519     2.482
 208   1 H      0.044  0.956  0.000  0.000     2.399     2.422
 209   1 H      0.058  0.942  0.000  0.000     2.220     2.330
 210   1 H      0.037  0.963  0.000  0.000     2.483     2.464
 211   1 H      0.031  0.969  0.000  0.000     2.566     2.505
 212   7 N     -0.082  1.238  3.844  0.000    22.830     7.096
 213   6 C      0.019  1.074  2.907  0.000    20.221     6.397
 214   6 C      0.375  1.023  2.602  0.000    20.651     7.437
 215   8 O     -0.644  1.772  4.872  0.000    27.220     6.995
 216   6 C     -0.059  1.052  3.007  0.000    21.607     6.614
 217   6 C     -0.058  1.050  3.008  0.000    21.592     6.611
 218   6 C      0.004  1.049  2.947  0.000    20.542     6.460
 219   8 O     -0.629  1.769  4.861  0.000    26.853     6.948
 220   1 H      0.018  0.982  0.000  0.000     2.772     2.603
 221   1 H      0.042  0.958  0.000  0.000     2.417     2.431
 222   1 H      0.046  0.954  0.000  0.000     2.368     2.406
 223   1 H      0.040  0.960  0.000  0.000     2.451     2.448
 224   1 H      0.063  0.937  0.000  0.000     2.168     2.302
 225   1 H      0.055  0.945  0.000  0.000     2.259     2.350
 226   1 H      0.067  0.933  0.000  0.000     2.121     2.278

 Mol. C6AA /au·bohr⁶  :     474704.783141
 Mol. C8AA /au·bohr⁸  :   10731246.440042
 Mol. α(0) /au        :       1032.731083

 
 Wiberg/Mayer (AO) data. WBOs > 0.1 written file <wbo>
 largest (>0.05) Wiberg bond orders for each atom
           total WBO             WBO to atom ...
     1  N   3.648    C    2 0.977    H    9 0.890    H    8 0.874    H    7 0.853
     2  C   3.942    C    5 0.981    N    1 0.977    H   10 0.940    C    3 0.934    O    4 0.058
     3  C   3.957    O    4 1.615    N   14 1.335    C    2 0.934
     4  O   2.022    C    3 1.615    N   14 0.200    C    2 0.058
     5  C   3.950    O    6 1.003    C    2 0.981    H   12 0.963    H   11 0.961
     6  O   1.952    C    5 1.003    H   13 0.867
     7  H   0.903    N    1 0.853
     8  H   0.906    N    1 0.874
     9  H   0.901    N    1 0.890
    10  H   0.978    C    2 0.940
    11  H   0.995    C    5 0.961
    12  H   0.993    C    5 0.963
    13  H   0.881    O    6 0.867
    14  N   3.503    C    3 1.335    C   15 0.977    H   22 0.913    O    4 0.200
    15  C   3.960    N   14 0.977    C   18 0.971    H   23 0.941    C   16 0.928    O   17 0.051
    16  C   3.944    O   17 1.644    N   33 1.285    C   15 0.928
    17  O   2.020    C   16 1.644    N   33 0.194    C   15 0.051
    18  C   3.989    C   20 1.007    C   19 0.992    C   15 0.971    H   24 0.961
    19  C   3.993    C   21 1.021    C   18 0.992    H   26 0.974    H   25 0.972
    20  C   3.992    C   18 1.007    H   29 0.984    H   28 0.983    H   27 0.983
    21  C   3.994    C   19 1.021    H   32 0.985    H   30 0.985    H   31 0.982
    22  H   0.950    N   14 0.913
    23  H   0.988    C   15 0.941
    24  H   0.997    C   18 0.961
    25  H   0.997    C   19 0.972
    26  H   0.997    C   19 0.974
    27  H   0.997    C   20 0.983
    28  H   0.997    C   20 0.983
    29  H   0.999    C   20 0.984
    30  H   0.998    C   21 0.985
    31  H   0.997    C   21 0.982
    32  H   0.998    C   21 0.985
    33  N   3.449    C   16 1.285    C   34 0.978    H   40 0.910    O   17 0.194
    34  C   3.967    N   33 0.978    C   37 0.966    H   41 0.954    C   35 0.935    O   36 0.051
    35  C   3.947    O   36 1.645    N   49 1.285    C   34 0.935
    36  O   1.958    C   35 1.645    N   49 0.194    C   34 0.051
    37  C   3.988    C   38 1.009    C   39 1.008    C   34 0.966    H   42 0.959
    38  C   3.993    C   37 1.009    H   45 0.986    H   43 0.983    H   44 0.983
    39  C   3.992    C   37 1.008    H   47 0.986    H   46 0.981    H   48 0.977
    40  H   0.953    N   33 0.910
    41  H   0.997    C   34 0.954
    42  H   0.994    C   37 0.959
    43  H   0.996    C   38 0.983
    44  H   0.999    C   38 0.983
    45  H   0.999    C   38 0.986
    46  H   0.995    C   39 0.981
    47  H   0.998    C   39 0.986
    48  H   0.997    C   39 0.977
    49  N   3.450    C   35 1.285    C   50 0.976    H   54 0.910    O   36 0.194
    50  C   3.962    C   53 0.993    N   49 0.976    H   55 0.957    C   51 0.932
    51  C   3.943    O   52 1.594    N   59 1.331    C   50 0.932
    52  O   1.971    C   51 1.594    N   59 0.196
    53  C   3.974    C   50 0.993    H   56 0.980    H   57 0.977    H   58 0.975
    54  H   0.948    N   49 0.910
    55  H   0.996    C   50 0.957
    56  H   0.993    C   53 0.980
    57  H   0.992    C   53 0.977
    58  H   0.991    C   53 0.975
    59  N   3.476    C   51 1.331    C   60 0.979    H   70 0.877    O   52 0.196
    60  C   3.962    C   63 0.979    N   59 0.979    H   71 0.942    C   61 0.936
    61  C   3.936    O   62 1.605    N   83 1.310    C   60 0.936
    62  O   1.976    C   61 1.605    N   83 0.194
    63  C   3.978    C   64 1.007    C   60 0.979    H   73 0.969    H   72 0.960
    64  C   3.989    C   63 1.007    C   65 1.005    H   75 0.970    H   74 0.969
    65  C   3.959    C   64 1.005    N   66 0.988    H   76 0.958    H   77 0.957
    66  N   3.468    C   67 1.314    C   65 0.988    H   78 0.908    N   68 0.102    N   69 0.099
    67  C   3.978    N   68 1.325    N   66 1.314    N   69 1.307
    68  N   3.411    C   67 1.325    H   79 0.922    H   80 0.916    N   66 0.102    N   69 0.101
    69  N   3.377    C   67 1.307    H   82 0.917    H   81 0.915    N   68 0.101    N   66 0.099
    70  H   0.937    N   59 0.877
    71  H   0.991    C   60 0.942
    72  H   0.987    C   63 0.960
    73  H   0.995    C   63 0.969
    74  H   0.993    C   64 0.969
    75  H   0.996    C   64 0.970
    76  H   0.993    C   65 0.958
    77  H   0.993    C   65 0.957
    78  H   0.942    N   66 0.908
    79  H   0.947    N   68 0.922
    80  H   0.936    N   68 0.916
    81  H   0.934    N   69 0.915
    82  H   0.936    N   69 0.917
    83  N   3.468    C   61 1.310    C   84 0.991    H   89 0.878    O   62 0.194
    84  C   3.977    N   83 0.991    C   87 0.980    H   90 0.950    C   85 0.933    O   86 0.052
    85  C   3.946    O   86 1.634    N   94 1.293    C   84 0.933
    86  O   1.949    C   85 1.634    N   94 0.192    C   84 0.052
    87  C   3.965    O   88 1.007    C   84 0.980    H   92 0.970    H   91 0.964
    88  O   1.939    C   87 1.007    H   93 0.872
    89  H   0.939    N   83 0.878
    90  H   0.994    C   84 0.950
    91  H   0.998    C   87 0.964
    92  H   0.999    C   87 0.970
    93  H   0.886    O   88 0.872
    94  N   3.469    C   85 1.293    C   95 0.983    H  102 0.917    O   86 0.192
    95  C   3.969    C   98 0.989    N   94 0.983    H  103 0.954    C   96 0.928
    96  C   3.950    O   97 1.587    N  108 1.350    C   95 0.928
    97  O   1.949    C   96 1.587    N  108 0.200
    98  C   3.990    C   95 0.989    H  105 0.961    C   99 0.960    H  104 0.947    O  100 0.058
    99  C   3.948    O  100 1.653    N  101 1.307    C   98 0.960
   100  O   1.958    C   99 1.653    N  101 0.201    C   98 0.058
   101  N   3.392    C   99 1.307    H  107 0.927    H  106 0.924    O  100 0.201
   102  H   0.956    N   94 0.917
   103  H   0.995    C   95 0.954
   104  H   0.990    C   98 0.947
   105  H   0.993    C   98 0.961
   106  H   0.944    N  101 0.924
   107  H   0.945    N  101 0.927
   108  N   3.484    C   96 1.350    C  109 0.972    H  119 0.862    O   97 0.200
   109  C   3.959    N  108 0.972    C  112 0.962    H  120 0.952    C  110 0.941
   110  C   3.942    O  111 1.580    N  128 1.325    C  109 0.941
   111  O   1.948    C  110 1.580    N  128 0.186
   112  C   3.978    C  113 1.004    H  121 0.964    C  109 0.962    H  122 0.957
   113  C   3.986    C  115 1.414    C  114 1.414    C  112 1.004    C  118 0.110
   114  C   3.988    C  116 1.442    C  113 1.414    H  123 0.963    C  117 0.111
   115  C   3.991    C  117 1.446    C  113 1.414    H  124 0.969    C  116 0.112
   116  C   3.991    C  114 1.442    C  118 1.440    H  125 0.970    C  115 0.112
   117  C   3.992    C  115 1.446    C  118 1.438    H  126 0.970    C  114 0.111
   118  C   3.991    C  116 1.440    C  117 1.438    H  127 0.970    C  113 0.110
   119  H   0.937    N  108 0.862
   120  H   0.995    C  109 0.952
   121  H   0.993    C  112 0.964
   122  H   0.993    C  112 0.957
   123  H   0.997    C  114 0.963
   124  H   0.999    C  115 0.969
   125  H   0.998    C  116 0.970
   126  H   0.998    C  117 0.970
   127  H   0.997    C  118 0.970
   128  N   3.482    C  110 1.325    C  129 0.986    H  136 0.890    O  111 0.186
   129  C   3.970    N  128 0.986    C  132 0.983    H  137 0.946    C  130 0.938
   130  C   3.943    O  131 1.603    N  142 1.306    C  129 0.938
   131  O   1.951    C  130 1.603    N  142 0.187
   132  C   3.988    C  129 0.983    H  139 0.961    C  133 0.959    H  138 0.950    O  134 0.057
   133  C   3.956    O  134 1.663    N  135 1.304    C  132 0.959
   134  O   1.977    C  133 1.663    N  135 0.203    C  132 0.057
   135  N   3.391    C  133 1.304    H  141 0.934    H  140 0.919    O  134 0.203
   136  H   0.943    N  128 0.890
   137  H   0.992    C  129 0.946
   138  H   0.993    C  132 0.950
   139  H   0.994    C  132 0.961
   140  H   0.939    N  135 0.919
   141  H   0.952    N  135 0.934
   142  N   3.467    C  130 1.306    C  143 0.985    H  149 0.889    O  131 0.187
   143  C   3.966    N  142 0.985    C  146 0.961    H  150 0.945    C  144 0.942
   144  C   3.942    O  145 1.595    N  158 1.308    C  143 0.942
   145  O   1.944    C  144 1.595    N  158 0.188
   146  C   3.987    C  147 1.010    C  148 1.007    H  151 0.963    C  143 0.961
   147  C   3.994    C  146 1.010    H  153 0.985    H  154 0.985    H  152 0.984
   148  C   3.992    C  146 1.007    H  156 0.985    H  155 0.983    H  157 0.981
   149  H   0.950    N  142 0.889
   150  H   0.994    C  143 0.945
   151  H   0.997    C  146 0.963
   152  H   0.996    C  147 0.984
   153  H   0.999    C  147 0.985
   154  H   0.998    C  147 0.985
   155  H   0.996    C  148 0.983
   156  H   0.997    C  148 0.985
   157  H   0.997    C  148 0.981
   158  N   3.457    C  144 1.308    C  159 0.981    H  164 0.875    O  145 0.188
   159  C   3.968    C  162 0.986    N  158 0.981    H  165 0.954    C  160 0.935    O  161 0.050
   160  C   3.947    O  161 1.623    N  169 1.298    C  159 0.935
   161  O   1.956    C  160 1.623    N  169 0.191    C  159 0.050
   162  C   3.970    S  163 0.992    C  159 0.986    H  166 0.972    H  167 0.965
   163  S   2.000    C  162 0.992    H  168 0.933
   164  H   0.945    N  158 0.875
   165  H   0.997    C  159 0.954
   166  H   0.994    C  162 0.972
   167  H   0.991    C  162 0.965
   168  H   0.945    S  163 0.933
   169  N   3.466    C  160 1.298    C  170 0.989    H  180 0.887    O  161 0.191
   170  C   3.961    N  169 0.989    C  173 0.977    H  181 0.936    C  171 0.930    O  172 0.056
   171  C   3.940    O  172 1.620    N  193 1.304    C  170 0.930
   172  O   1.937    C  171 1.620    N  193 0.192    C  170 0.056
   173  C   3.981    C  174 1.004    C  170 0.977    H  182 0.972    H  183 0.969
   174  C   3.986    C  175 1.010    C  173 1.004    H  184 0.970    H  185 0.968
   175  C   3.954    C  174 1.010    N  176 0.980    H  187 0.956    H  186 0.955
   176  N   3.475    C  177 1.324    C  175 0.980    H  188 0.913    N  178 0.102    N  179 0.100
   177  C   3.978    N  176 1.324    N  178 1.321    N  179 1.302
   178  N   3.399    C  177 1.321    H  190 0.919    H  189 0.913    N  176 0.102    N  179 0.097
   179  N   3.376    C  177 1.302    H  191 0.920    H  192 0.919    N  176 0.100    N  178 0.097
   180  H   0.951    N  169 0.887
   181  H   0.993    C  170 0.936
   182  H   0.996    C  173 0.972
   183  H   0.994    C  173 0.969
   184  H   0.994    C  174 0.970
   185  H   0.991    C  174 0.968
   186  H   0.995    C  175 0.955
   187  H   0.989    C  175 0.956
   188  H   0.947    N  176 0.913
   189  H   0.943    N  178 0.913
   190  H   0.938    N  178 0.919
   191  H   0.940    N  179 0.920
   192  H   0.938    N  179 0.919
   193  N   3.474    C  171 1.304    C  194 0.990    H  201 0.891    O  172 0.192
   194  C   3.966    N  193 0.990    C  197 0.972    H  202 0.949    C  195 0.931
   195  C   3.945    O  196 1.564    N  212 1.330    C  194 0.931
   196  O   1.884    C  195 1.564    N  212 0.190
   197  C   3.987    C  198 0.991    H  204 0.973    C  194 0.972    H  203 0.970
   198  C   3.993    C  200 1.010    C  199 1.007    C  197 0.991    H  205 0.967
   199  C   3.994    C  198 1.007    H  208 0.986    H  206 0.985    H  207 0.983
   200  C   3.995    C  198 1.010    H  210 0.987    H  209 0.984    H  211 0.984
   201  H   0.955    N  193 0.891
   202  H   0.995    C  194 0.949
   203  H   0.998    C  197 0.970
   204  H   0.998    C  197 0.973
   205  H   0.999    C  198 0.967
   206  H   0.996    C  199 0.985
   207  H   0.999    C  199 0.983
   208  H   0.998    C  199 0.986
   209  H   0.996    C  200 0.984
   210  H   0.999    C  200 0.987
   211  H   0.999    C  200 0.984
   212  N   3.542    C  195 1.330    C  218 0.974    C  213 0.973    O  196 0.190
   213  C   3.955    C  216 0.991    N  212 0.973    H  220 0.958    C  214 0.871    O  219 0.055    O  215 0.052
   214  C   3.934    O  219 1.519    O  215 1.500    C  213 0.871
   215  O   1.800    C  214 1.500    O  219 0.218    C  213 0.052
   216  C   3.995    C  217 1.005    C  213 0.991    H  222 0.977    H  221 0.977
   217  C   3.994    C  216 1.005    C  218 1.000    H  223 0.982    H  224 0.979
   218  C   3.963    C  217 1.000    N  212 0.974    H  225 0.963    H  226 0.962
   219  O   1.818    C  214 1.519    O  215 0.218    C  213 0.055
   220  H   1.000    C  213 0.958
   221  H   0.998    C  216 0.977
   222  H   0.998    C  216 0.977
   223  H   0.998    C  217 0.982
   224  H   0.996    C  217 0.979
   225  H   0.997    C  218 0.963
   226  H   0.995    C  218 0.962
 MOs/occ written to file <molden.input>
 
molecular dipole:
                 x           y           z       tot (Debye)
 q only:      139.551      50.501      90.920
   full:      141.152      52.431      89.301     444.978
molecular quadrupole (traceless):
                xx          xy          yy          xz          yz          zz
 q only:     5690.820    5823.128   -4710.681    8254.686    3593.236    -980.139
  q+dip:     5837.891    6021.648   -4625.592    8222.495    3609.479   -1212.299
   full:     5837.080    6021.408   -4625.805    8223.736    3608.416   -1211.275
speedup  7.05
cpu  time for grad   12.12 s
wall time for grad    1.72 s

SCC energy    :    -353.6484968
rep           :       4.1236826
ES            :       1.4060424
AES           :      -0.0940562
AXC           :       0.1096696
disp          :      -0.2957678
XB            :       0.0000000
fix           :       0.0000000
Gborn         :       0.0000000
Gsasa         :       0.0000000
Ghb           :       0.0000000
Gshift        :       0.0000000
Gsolv         :      -0.5978904     -375.18
Etot ala COSMO:    -353.6484968
grad norm     :       0.0029800
total E       :    -349.5016162
atomizationE  :      63.1322247    39616.07
(atE without considering molecular charge,
 total energy contains solvation terms)
H-L gap (eV)  :          2.4607

------------------------------------------------------------------------
 * finished run on 2019/03/17 at 17:00:57.996     
------------------------------------------------------------------------
 total:
 * wall-time:     0 d,  0 h,  0 min,  1.898 sec
 *  cpu-time:     0 d,  0 h,  0 min, 13.702 sec
 * ratio c/w:     7.220 speedup
 SCF:
 * wall-time:     0 d,  0 h,  0 min,  1.813 sec
 *  cpu-time:     0 d,  0 h,  0 min, 13.255 sec
 * ratio c/w:     7.312 speedup

