      -----------------------------------------------------------      
     |                   =====================                   |     
     |                           x T B                           |     
     |                   =====================                   |     
     |                         S. Grimme                         |     
     |          Mulliken Center for Theoretical Chemistry        |     
     |                    University of Bonn                     |     
     |                 Version 6.0.1 (SAW181210)                 |     
      -----------------------------------------------------------      

   This program is distributed in the hope that it will be useful,
   but WITHOUT ANY WARRANTY; without even the implied warranty of
   MERCHANTABILITY or FITNESS FOR A PARTICULAR PURPOSE.
   
   FOR NON-COMMERCIAL, ACADEMIA USE ONLY.
   
   Cite this work as:
   S. Grimme, C. Bannwarth, P. Shushkov, J. Comput. Theory Chem., 2017,
   13, 1989-2009.
   C. Bannwarth, S. Ehlert and S. Grimme., ChemRxiv, 2018, preprint.
   http://doi.org/10.26434/chemrxiv.7246238.v1
   
   for sTDA-xTB:
   S. Grimme and C. Bannwarth, J. Chem. Phys., 2016, 145, 054103.
   
   in the mass-spec context:
   V. Asgeirsson, C. Bauer and S. Grimme, Chem. Sci., 2017, 8, 4879.
   
   if GBSA is used:
   P. Shushkov, F. März and S. Grimme, unpublished.
   
   for ANC optimizer:
   S. Grimme, unpublished.
   Rational Function algorithm used in ANCopt:
   F. Eckert, P. Pulay, H.-J. Werner, J. Comput. Chem., 1997, 18, 1473.
   
   with help from (in alphabetical order)
   C. Bannwarth, F. Bohle, G. Brandenburg, E. Caldeweyher, M. Checinski,
   S. Dohm, S. Ehlert, S. Ehrlich, F. März, H. Neugebauer, J. Pisarek,
   P. Pracht, P. Shushkov, and S. Spicher.
   
 * started run on 2019/03/05 at 19:41:25.348     
========================================================================
 # omp threads = 8
========================================================================
number of atoms            : 226
number of electrons        : 616
charge                     : 2
spin                       : .0
first test random number   : .7442

########################################################################
# WARNING! Please study the warnings concerning your input carefully
#  - Process number higher than OMP_NUM_THREADS, I hope you know what you are doing.
########################################################################

           ------------------------------------------------- 
          |                 G F N 2 - x T B                 |
          | Geometry, Frequencies, Noncovalent interactions |
          |            JCTC 2018 parametrisation            |
           ------------------------------------------------- 
 
      method parameters     
 k(s)        :  1.8500
 k(p)        :  2.2300
 k(d)        :  2.2300
 k(f)        :  2.0000
 kEN (H0ij)  : -2.0000
 D4 a1       :  0.5200
 D4 a2       :  5.0000
 D4 s6       :  1.0000
 D4 s8       :  2.7000
 D4 s9       :  5.0000
 alphaj      :  2.0000

 Solvent             : h2o
 Using internal parameter file: .param_gbsa2_h2o
 Gsolv ref. state (COSMO-RS): gsolv [1 M gas/solution]
 temperature (mdtemp)       :    298.150000000000     
 dielectric constant        :    80.2000000000000     
 rho                        :    1.00000000000000     
 mass                       :    18.0000000000000     
 surface tension            :    15.5689454083859     
 probe radius               :   0.975313790000000     
 vdW radii scaling          :    1.00000000000000     
 Gshift (Eh)                :   1.857443126794793E-003
 c1                         :    1.55243817000000     
 soset                      :   0.130326360000000     
 HB correction              :  T

            Z     q(EN)     CN     RAES       Cart. coordinates
     1  N   5.0   -0.10    4.18    3.37    59.63850    28.02676    36.71774
     2  C   4.0    0.01    4.31    4.21    60.87185    30.54467    36.85863
     3  C   4.0    0.15    3.45    3.09    58.84318    32.46621    35.99373
     4  O   6.0   -0.32    1.34    1.80    56.77826    31.66889    35.32923
     5  C   4.0    0.03    4.14    3.89    63.15534    30.53319    35.05737
     6  O   6.0   -0.25    2.11    1.84    62.22124    29.64022    32.71749
     7  H   1.0    0.08    1.07    1.44    57.69727    28.37603    36.52204
     8  H   1.0    0.08    1.05    1.44    60.22055    27.17963    35.04480
     9  H   1.0    0.07    1.01    1.43    60.01111    26.85886    38.22784
    10  H   1.0    0.05    1.04    1.43    61.47899    30.98019    38.78105
    11  H   1.0    0.05    1.01    1.43    63.95935    32.42717    34.86353
    12  H   1.0    0.05    1.01    1.43    64.62082    29.27884    35.81046
    13  H   1.0    0.13    1.02    1.43    63.60580    29.23819    31.60804
    14  N   5.0   -0.15    3.46    2.05    59.51335    34.88049    36.05200
    15  C   4.0    0.03    4.50    4.54    57.81116    36.88096    35.23520
    16  C   4.0    0.16    3.51    3.12    56.95212    36.34563    32.51380
    17  O   6.0   -0.30    1.32    1.80    54.72697    36.21933    31.93608
    18  C   4.0   -0.03    4.32    4.23    59.09159    39.48190    35.44909
    19  C   4.0   -0.04    4.17    3.94    59.53704    40.25374    38.21656
    20  C   4.0   -0.06    4.14    3.88    57.53867    41.45919    34.02403
    21  C   4.0   -0.06    4.01    3.65    57.14542    40.66822    39.76982
    22  H   1.0    0.07    1.07    1.44    61.22784    35.40480    36.71365
    23  H   1.0    0.05    1.05    1.44    56.09814    36.85738    36.39721
    24  H   1.0    0.05    1.05    1.44    60.95193    39.37504    34.54271
    25  H   1.0    0.05    1.03    1.43    60.70315    38.84014    39.16317
    26  H   1.0    0.05    1.03    1.43    60.61845    42.01036    38.19678
    27  H   1.0    0.06    1.00    1.43    55.55675    41.39038    34.55724
    28  H   1.0    0.06    1.00    1.43    58.25869    43.34280    34.41466
    29  H   1.0    0.06    1.00    1.43    57.64338    41.15132    31.99364
    30  H   1.0    0.05    1.00    1.43    55.94700    42.09733    38.91398
    31  H   1.0    0.05    1.00    1.43    56.06213    38.93821    39.97842
    32  H   1.0    0.06    1.00    1.43    57.65892    41.32637    41.64744
    33  N   5.0   -0.14    3.51    2.09    58.85714    35.85688    30.91169
    34  C   4.0    0.03    4.48    4.51    58.47150    35.43819    28.22373
    35  C   4.0    0.17    3.53    3.13    56.09110    33.82025    27.87397
    36  O   6.0   -0.27    1.22    1.80    54.33313    34.42704    26.50906
    37  C   4.0   -0.02    4.27    4.13    60.80662    34.12184    27.07823
    38  C   4.0   -0.06    4.13    3.86    60.27232    33.35829    24.34644
    39  C   4.0   -0.06    4.11    3.81    63.13149    35.83662    27.16722
    40  H   1.0    0.07    1.07    1.44    60.64560    36.28244    31.42951
    41  H   1.0    0.06    1.05    1.44    58.13106    37.23336    27.23846
    42  H   1.0    0.05    1.05    1.44    61.19132    32.41247    28.17475
    43  H   1.0    0.06    1.00    1.43    61.89409    32.38415    23.54744
    44  H   1.0    0.06    1.00    1.43    58.63951    32.11845    24.21578
    45  H   1.0    0.06    1.00    1.43    59.89129    35.01990    23.19676
    46  H   1.0    0.06    1.00    1.43    64.70261    34.91264    26.21985
    47  H   1.0    0.06    1.00    1.43    62.75923    37.60563    26.18914
    48  H   1.0    0.05    1.00    1.43    63.72752    36.26846    29.08467
    49  N   5.0   -0.13    3.51    2.09    56.17376    31.62257    29.14039
    50  C   4.0    0.04    4.34    4.28    54.16619    29.77191    28.92899
    51  C   4.0    0.17    3.44    3.09    51.72269    30.75583    30.13500
    52  O   6.0   -0.31    1.30    1.80    49.71763    30.73455    28.96576
    53  C   4.0   -0.06    4.12    3.84    54.97614    27.30720    30.18102
    54  H   1.0    0.09    1.07    1.44    57.66023    31.20711    30.26427
    55  H   1.0    0.06    1.05    1.44    53.74502    29.49313    26.91679
    56  H   1.0    0.05    1.00    1.43    53.50828    25.89514    29.93260
    57  H   1.0    0.06    1.00    1.43    56.69201    26.61386    29.29155
    58  H   1.0    0.06    1.00    1.43    55.27470    27.62119    32.18518
    59  N   5.0   -0.14    3.48    2.07    51.92445    31.45253    32.54825
    60  C   4.0    0.04    4.42    4.41    49.74394    32.16578    34.05729
    61  C   4.0    0.16    3.51    3.12    48.06207    34.09267    32.70593
    62  O   6.0   -0.29    1.31    1.80    45.77661    33.77336    32.48452
    63  C   4.0   -0.04    4.28    4.16    50.61373    33.21342    36.61233
    64  C   4.0   -0.04    4.19    3.99    48.40060    33.70052    38.41514
    65  C   4.0   -0.00    4.20    4.00    47.24795    31.27823    39.48727
    66  N   5.0   -0.14    3.41    2.03    49.10994    29.95454    41.00964
    67  C   4.0    0.10    3.33    3.06    49.20245    27.48728    41.47185
    68  N   5.0   -0.18    3.25    1.97    47.54230    25.90750    40.45012
    69  N   5.0   -0.17    3.24    1.96    51.11128    26.56624    42.84268
    70  H   1.0    0.11    1.09    1.44    53.65655    31.71920    33.33624
    71  H   1.0    0.05    1.06    1.44    48.57786    30.47310    34.32191
    72  H   1.0    0.06    1.03    1.43    51.92223    31.86193    37.45154
    73  H   1.0    0.05    1.03    1.43    51.60767    34.98514    36.26835
    74  H   1.0    0.05    1.03    1.43    49.04152    34.90053    39.96253
    75  H   1.0    0.06    1.03    1.43    46.90836    34.71491    37.42094
    76  H   1.0    0.06    1.02    1.43    45.59205    31.77170    40.62186
    77  H   1.0    0.05    1.03    1.43    46.61633    30.08316    37.93502
    78  H   1.0    0.08    1.07    1.44    50.25240    31.09783    42.02659
    79  H   1.0    0.09    1.03    1.43    46.01156    26.53372    39.50941
    80  H   1.0    0.10    1.03    1.43    47.66139    24.03538    40.76669
    81  H   1.0    0.10    1.03    1.43    52.30780    27.72630    43.76885
    82  H   1.0    0.10    1.03    1.43    51.11865    24.72742    43.33878
    83  N   5.0   -0.13    3.51    2.08    49.25046    36.16772    31.89984
    84  C   4.0    0.05    4.42    4.41    47.85692    38.17416    30.67234
    85  C   4.0    0.17    3.50    3.11    45.88877    37.07862    28.85374
    86  O   6.0   -0.28    1.21    1.80    43.68178    37.75869    28.83539
    87  C   4.0    0.05    4.16    3.93    49.64880    39.91025    29.21206
    88  O   6.0   -0.24    2.05    1.83    51.17377    41.20870    30.96516
    89  H   1.0    0.12    1.10    1.44    51.15799    36.35962    32.01261
    90  H   1.0    0.07    1.05    1.44    46.85010    39.30852    32.09081
    91  H   1.0    0.07    1.01    1.43    50.81199    38.78038    27.91177
    92  H   1.0    0.06    1.01    1.43    48.50513    41.21613    28.08044
    93  H   1.0    0.13    1.02    1.43    51.94472    42.63842    30.14252
    94  N   5.0   -0.12    3.57    2.13    46.85024    35.36502    27.26167
    95  C   4.0    0.05    4.44    4.45    45.38125    34.25420    25.24654
    96  C   4.0    0.16    3.46    3.10    43.51231    32.32932    26.34106
    97  O   6.0   -0.30    1.31    1.80    41.25826    32.37600    25.78429
    98  C   4.0   -0.03    4.31    4.22    47.13866    33.03862    23.30977
    99  C   4.0    0.17    3.22    3.04    48.77559    35.03182    22.00263
   100  O   6.0   -0.27    1.23    1.80    48.91061    37.21936    22.71572
   101  N   5.0   -0.17    3.18    1.95    50.07283    34.15446    20.01136
   102  H   1.0    0.11    1.08    1.44    48.70738    34.93804    27.32563
   103  H   1.0    0.07    1.05    1.44    44.25063    35.74960    24.35530
   104  H   1.0    0.06    1.03    1.43    48.37973    31.69811    24.27368
   105  H   1.0    0.05    1.03    1.43    46.01822    32.02432    21.90788
   106  H   1.0    0.12    1.03    1.43    51.19775    35.34329    19.04162
   107  H   1.0    0.10    1.03    1.43    49.92000    32.35938    19.41165
   108  N   5.0   -0.13    3.50    2.08    44.50871    30.64595    27.91309
   109  C   4.0    0.04    4.44    4.45    42.98076    28.75124    29.17421
   110  C   4.0    0.17    3.59    3.16    40.40191    29.83641    29.87806
   111  O   6.0   -0.31    1.32    1.80    38.41996    28.78750    29.27611
   112  C   4.0   -0.03    4.35    4.29    44.31421    27.83957    31.58497
   113  C   4.0   -0.01    3.60    3.17    42.56182    26.18595    33.09793
   114  C   4.0   -0.03    3.47    3.10    41.30030    27.14975    35.19031
   115  C   4.0   -0.03    3.47    3.10    42.11739    23.70418    32.36599
   116  C   4.0   -0.03    3.37    3.07    39.60132    25.65705    36.50818
   117  C   4.0   -0.03    3.37    3.07    40.42879    22.21103    33.69132
   118  C   4.0   -0.03    3.37    3.07    39.15564    23.19000    35.75778
   119  H   1.0    0.12    1.11    1.45    46.37846    30.73076    28.36814
   120  H   1.0    0.06    1.05    1.44    42.62587    27.16362    27.88527
   121  H   1.0    0.05    1.03    1.43    46.01491    26.81289    31.03373
   122  H   1.0    0.06    1.04    1.43    44.82239    29.51410    32.67173
   123  H   1.0    0.07    1.03    1.43    41.61748    29.08368    35.76718
   124  H   1.0    0.06    1.03    1.43    43.09060    22.94132    30.74214
   125  H   1.0    0.06    1.03    1.43    38.61364    26.43042    38.11674
   126  H   1.0    0.06    1.03    1.43    40.09438    20.28744    33.10070
   127  H   1.0    0.06    1.03    1.43    37.82361    22.03215    36.77900
   128  N   5.0   -0.13    3.54    2.10    40.47541    31.90880    31.30451
   129  C   4.0    0.05    4.44    4.45    38.20012    33.00296    32.35011
   130  C   4.0    0.16    3.50    3.11    36.05485    33.11796    30.41220
   131  O   6.0   -0.31    1.27    1.80    33.87644    32.57201    30.99399
   132  C   4.0   -0.03    4.32    4.23    38.76357    35.65600    33.34700
   133  C   4.0    0.17    3.22    3.04    40.35923    35.55789    35.75197
   134  O   6.0   -0.29    1.22    1.80    41.43582    33.66614    36.49191
   135  N   5.0   -0.17    3.19    1.95    40.47463    37.76750    36.98639
   136  H   1.0    0.12    1.09    1.44    42.14839    32.70369    31.79774
   137  H   1.0    0.06    1.05    1.44    37.51913    31.81159    33.91206
   138  H   1.0    0.07    1.03    1.43    39.80648    36.72206    31.91477
   139  H   1.0    0.05    1.03    1.43    36.99314    36.63846    33.73296
   140  H   1.0    0.11    1.03    1.43    41.47623    37.89214    38.60093
   141  H   1.0    0.10    1.03    1.43    39.56757    39.31001    36.35355
   142  N   5.0   -0.14    3.54    2.10    36.70004    34.02531    28.14539
   143  C   4.0    0.04    4.50    4.53    34.85679    34.42729    26.16312
   144  C   4.0    0.16    3.50    3.12    33.23433    32.08510    25.70046
   145  O   6.0   -0.32    1.30    1.80    31.00061    32.25690    25.09059
   146  C   4.0   -0.02    4.27    4.13    36.21241    35.28186    23.73410
   147  C   4.0   -0.06    4.12    3.85    34.35638    35.53200    21.54098
   148  C   4.0   -0.06    4.12    3.84    37.54715    37.80390    24.18436
   149  H   1.0    0.11    1.10    1.44    38.53876    34.02924    27.60391
   150  H   1.0    0.05    1.05    1.44    33.53471    35.90861    26.77009
   151  H   1.0    0.06    1.05    1.44    37.62475    33.84195    23.27223
   152  H   1.0    0.06    1.00    1.43    35.34186    36.16645    19.85507
   153  H   1.0    0.06    1.00    1.43    33.43981    33.74175    21.12116
   154  H   1.0    0.05    1.00    1.43    32.88824    36.89947    21.99080
   155  H   1.0    0.06    1.00    1.43    38.45425    38.41895    22.44831
   156  H   1.0    0.05    1.00    1.43    36.18943    39.23943    24.74858
   157  H   1.0    0.06    1.00    1.43    38.99052    37.65166    25.63765
   158  N   5.0   -0.14    3.51    2.08    34.40390    29.85805    25.94418
   159  C   4.0    0.05    4.50    4.54    33.04989    27.50264    25.63998
   160  C   4.0    0.16    3.59    3.16    30.49688    27.45526    27.00897
   161  O   6.0   -0.28    1.30    1.80    28.76453    26.16340    26.17909
   162  C   4.0   -0.03    4.14    3.87    34.65946    25.34427    26.67370
   163  S   6.0   -0.01    2.48    3.10    32.78935    22.44740    26.88140
   164  H   1.0    0.12    1.11    1.45    36.15017    29.75337    26.74384
   165  H   1.0    0.06    1.05    1.44    32.61700    27.18985    23.63075
   166  H   1.0    0.06    1.06    1.44    36.25533    24.99334    25.42263
   167  H   1.0    0.06    1.07    1.44    35.33538    25.82851    28.55764
   168  H   1.0    0.06    0.98    1.43    34.77820    21.02780    27.51463
   169  N   5.0   -0.14    3.53    2.10    30.41776    28.60900    29.25908
   170  C   4.0    0.04    4.43    4.44    28.20365    28.42978    30.83948
   171  C   4.0    0.16    3.39    3.08    26.15636    30.42649    30.32942
   172  O   6.0   -0.26    1.24    1.80    24.35644    30.61564    31.77583
   173  C   4.0   -0.03    4.28    4.15    28.97096    28.53265    33.62935
   174  C   4.0   -0.04    4.19    3.97    31.05754    26.65910    34.35733
   175  C   4.0   -0.00    4.22    4.05    30.66281    23.96289    33.41947
   176  N   5.0   -0.13    3.41    2.03    28.32785    22.90442    34.39765
   177  C   4.0    0.11    3.34    3.06    27.17172    20.87774    33.47618
   178  N   5.0   -0.17    3.26    1.97    28.23051    19.48689    31.67125
   179  N   5.0   -0.16    3.24    1.97    25.01653    20.10304    34.53482
   180  H   1.0    0.11    1.10    1.44    31.74066    29.90531    29.77094
   181  H   1.0    0.07    1.07    1.44    27.28211    26.62746    30.37889
   182  H   1.0    0.06    1.03    1.43    29.64743    30.44184    34.01873
   183  H   1.0    0.07    1.03    1.43    27.25238    28.25936    34.72858
   184  H   1.0    0.05    1.03    1.43    32.83884    27.32838    33.57054
   185  H   1.0    0.05    1.03    1.43    31.22780    26.66793    36.40989
   186  H   1.0    0.05    1.05    1.44    30.61578    23.95740    31.35599
   187  H   1.0    0.05    1.02    1.43    32.25857    22.80368    34.04154
   188  H   1.0    0.09    1.07    1.44    27.45181    23.90568    35.76528
   189  H   1.0    0.09    1.04    1.43    29.75435    20.10355    30.70823
   190  H   1.0    0.11    1.03    1.43    27.29078    18.00069    30.94486
   191  H   1.0    0.11    1.03    1.43    24.10679    21.19078    35.79938
   192  H   1.0    0.11    1.03    1.43    24.04757    18.63628    33.80854
   193  N   5.0   -0.14    3.49    2.07    26.47920    31.87471    28.28742
   194  C   4.0    0.04    4.42    4.42    24.71780    33.84510    27.62998
   195  C   4.0    0.16    3.47    3.10    22.67769    33.20370    25.66291
   196  O   6.0   -0.24    1.24    1.80    20.56370    34.15672    25.96850
   197  C   4.0   -0.04    4.36    4.31    26.12481    36.21475    26.74087
   198  C   4.0   -0.02    4.18    3.96    27.92250    37.32385    28.72748
   199  C   4.0   -0.07    4.10    3.81    29.32633    39.56924    27.57492
   200  C   4.0   -0.06    4.10    3.81    26.52047    38.14885    31.10954
   201  H   1.0    0.11    1.11    1.44    28.03076    31.69877    27.17885
   202  H   1.0    0.08    1.07    1.44    23.62585    34.26106    29.34199
   203  H   1.0    0.05    1.03    1.43    27.20873    35.71913    25.05580
   204  H   1.0    0.06    1.03    1.43    24.71069    37.62096    26.20832
   205  H   1.0    0.06    1.05    1.44    29.29618    35.85939    29.23730
   206  H   1.0    0.05    1.00    1.43    30.71157    40.31017    28.89759
   207  H   1.0    0.05    1.00    1.43    30.28669    39.00651    25.84698
   208  H   1.0    0.06    1.00    1.43    27.99644    41.06509    27.10997
   209  H   1.0    0.06    1.00    1.43    27.80747    39.09910    32.39722
   210  H   1.0    0.06    1.00    1.43    24.99800    39.44213    30.62472
   211  H   1.0    0.06    1.00    1.43    25.70635    36.53483    32.08480
   212  N   5.0   -0.09    3.67    2.23    23.25081    31.91081    23.58491
   213  C   4.0    0.05    4.58    4.64    21.29916    31.31638    21.76177
   214  C   4.0    0.27    3.17    3.03    19.68630    28.96145    22.62559
   215  O   6.0   -0.23    1.17    1.80    17.94699    28.34816    21.16115
   216  C   4.0   -0.03    4.33    4.25    22.77357    30.75547    19.35683
   217  C   4.0   -0.03    4.26    4.13    25.09441    29.37550    20.37380
   218  C   4.0    0.00    4.37    4.33    25.56198    30.56479    22.97825
   219  O   6.0   -0.23    1.18    1.80    20.28157    27.93070    24.64978
   220  H   1.0    0.08    1.05    1.44    19.98067    32.90115    21.58240
   221  H   1.0    0.07    1.02    1.43    21.65098    29.60907    18.07013
   222  H   1.0    0.06    1.02    1.43    23.30239    32.51426    18.41836
   223  H   1.0    0.07    1.02    1.43    24.65834    27.37478    20.59859
   224  H   1.0    0.06    1.02    1.43    26.72616    29.57115    19.14029
   225  H   1.0    0.08    1.03    1.43    25.93365    29.08949    24.37287
   226  H   1.0    0.06    1.02    1.43    27.14750    31.88434    22.93906

  Z AO/shell   Hii/eV     exponent
  1     Wed Apr 25 08:07:45 CEST 2018   EN: 2.200 GM2: 0.406  GM3: 0.0800  RAES: 1.40
     1s    -10.707211    1.230000
  6     Wed Apr 25 08:07:45 CEST 2018   EN: 2.550 GM2: 0.538  GM3: 0.1500  RAES: 3.00
     2s    -13.970922    2.096432
     2p    -10.063292    1.800000
  7     Wed Apr 25 08:07:45 CEST 2018   EN: 3.040 GM2: 0.461  GM3:-0.0640  RAES: 1.90
     2s    -16.686243    2.339881
     2p    -12.523956    2.014332
  8     Wed Apr 25 08:07:45 CEST 2018   EN: 3.440 GM2: 0.452  GM3:-0.0517  RAES: 1.80
     2s    -20.229985    2.439742
     2p    -15.503117    2.137023
 16     Tue Apr 24 11:44:34 CEST 2018   EN: 2.580 GM2: 0.340  GM3:-0.0502  RAES: 3.10
     3s    -20.029654    1.981333
     3p    -11.377694    2.025643
     3d     -0.420282    1.702555
 no old-style atom pair restraining (fixing) potential
           ------------------------------------------------- 
          |        Self-Consistent Charge Iterations        |
           ------------------------------------------------- 

 Ncao       : 562
 Nao        : 561
 Nshell     : 337
 Nel        : 616
 T(el)      :   500.0
 intcut     :    35.0
 scfconv/Eh :  0.100E-06
   qconv/e  :  0.100E-04
 intneglect :  0.100E-08
 broydamp   :      0.400
 iter      E             dE          RMSdq      gap      omega  full diag
   1   -352.7779933 -0.352778E+03  0.453E+00    4.27       0.0  T
   2   -353.5371523 -0.759159E+00  0.214E+00    3.37       1.0  T
   3   -353.5802448 -0.430926E-01  0.114E+00    3.26       1.0  T
   4   -353.6293437 -0.490989E-01  0.270E-01    2.33       1.0  T
   5   -353.6321742 -0.283046E-02  0.132E-01    2.40       1.0  T
   6   -353.6326992 -0.525017E-03  0.606E-02    2.42       1.0  T
   7   -353.6329458 -0.246629E-03  0.306E-02    2.44       1.0  T
   8   -353.6329755 -0.297027E-04  0.136E-02    2.46       1.0  T
   9   -353.6329832 -0.766883E-05  0.559E-03    2.47       1.2  T
  10   -353.6329838 -0.586370E-06  0.265E-03    2.46       2.5  T
  11   -353.6329842 -0.371176E-06  0.927E-04    2.46       7.2  T
  12   -353.6329842 -0.461617E-07  0.436E-04    2.46      15.3  T
  13   -353.6329842 -0.744700E-08  0.167E-04    2.46      39.8  T
  14   -353.6329842 -0.722423E-09  0.685E-05    2.46      97.1  T
  15   -353.6329842 -0.133525E-09  0.268E-05    2.46     247.9  T
speedup  4.80
cpu  time for SCC    5.00 s
wall time for SCC    1.04 s

   *** convergence criteria satisfied after 15 iterations ***

          eigenvalues
 #    :         296        297        298        299        300        301        302        303
 occ. :        2.000      2.000      2.000      2.000      2.000      2.000      2.000      2.000
 eps  :       -11.016    -10.977    -10.967    -10.921    -10.901    -10.859    -10.724    -10.711
 #    :         304        305        306        307        308        309        310        311
 occ. :        2.000      2.000      2.000      2.000      2.000      0.000      0.000      0.000
 eps  :       -10.692    -10.357    -10.300    -10.299     -9.505     -7.041     -6.654     -6.626
 #    :         312        313        314        315        316        317        318        319
 occ. :        0.000      0.000      0.000      0.000      0.000      0.000      0.000      0.000
 eps  :        -6.465     -6.401     -6.352     -6.249     -6.218     -6.197     -6.181     -6.120


   #   Z            q   n(s)   n(p)   n(d)      C6AA      α(0)
   1   7 N     -0.157  1.228  3.929  0.000    24.377     7.333
   2   6 C     -0.033  1.075  2.958  0.000    21.188     6.557
   3   6 C      0.263  1.034  2.703  0.000    22.557     7.777
   4   8 O     -0.444  1.728  4.716  0.000    22.585     6.372
   5   6 C      0.047  1.044  2.909  0.000    20.006     6.408
   6   8 O     -0.464  1.703  4.760  0.000    22.125     6.350
   7   1 H      0.310  0.690  0.000  0.000     0.685     1.296
   8   1 H      0.307  0.693  0.000  0.000     0.692     1.304
   9   1 H      0.315  0.685  0.000  0.000     0.671     1.284
  10   1 H      0.148  0.852  0.000  0.000     1.404     1.853
  11   1 H      0.070  0.930  0.000  0.000     2.088     2.260
  12   1 H      0.083  0.917  0.000  0.000     1.945     2.181
  13   1 H      0.345  0.655  0.000  0.000     0.601     1.217
  14   7 N     -0.148  1.233  3.915  0.000    24.198     7.306
  15   6 C     -0.004  1.073  2.931  0.000    20.653     6.470
  16   6 C      0.279  1.039  2.682  0.000    22.280     7.729
  17   8 O     -0.461  1.743  4.719  0.000    22.948     6.423
  18   6 C     -0.029  1.069  2.961  0.000    21.062     6.528
  19   6 C     -0.069  1.052  3.017  0.000    21.827     6.652
  20   6 C     -0.116  1.036  3.080  0.000    22.779     6.805
  21   6 C     -0.120  1.036  3.084  0.000    22.861     6.819
  22   1 H      0.225  0.775  0.000  0.000     0.989     1.557
  23   1 H      0.105  0.895  0.000  0.000     1.737     2.061
  24   1 H      0.052  0.948  0.000  0.000     2.298     2.371
  25   1 H      0.055  0.945  0.000  0.000     2.258     2.350
  26   1 H      0.044  0.956  0.000  0.000     2.399     2.422
  27   1 H      0.056  0.944  0.000  0.000     2.248     2.344
  28   1 H      0.049  0.951  0.000  0.000     2.331     2.387
  29   1 H      0.030  0.970  0.000  0.000     2.580     2.512
  30   1 H      0.040  0.960  0.000  0.000     2.448     2.447
  31   1 H      0.055  0.945  0.000  0.000     2.254     2.348
  32   1 H      0.040  0.960  0.000  0.000     2.444     2.445
  33   7 N     -0.180  1.247  3.933  0.000    24.897     7.411
  34   6 C      0.012  1.068  2.920  0.000    20.378     6.428
  35   6 C      0.288  1.037  2.675  0.000    22.111     7.700
  36   8 O     -0.506  1.762  4.744  0.000    23.923     6.558
  37   6 C     -0.029  1.067  2.962  0.000    21.056     6.527
  38   6 C     -0.116  1.038  3.078  0.000    22.779     6.805
  39   6 C     -0.124  1.041  3.083  0.000    22.928     6.827
  40   1 H      0.216  0.784  0.000  0.000     1.029     1.589
  41   1 H      0.053  0.947  0.000  0.000     2.282     2.362
  42   1 H      0.074  0.926  0.000  0.000     2.038     2.232
  43   1 H      0.057  0.943  0.000  0.000     2.232     2.336
  44   1 H      0.037  0.963  0.000  0.000     2.487     2.466
  45   1 H      0.035  0.965  0.000  0.000     2.518     2.482
  46   1 H      0.060  0.940  0.000  0.000     2.198     2.319
  47   1 H      0.040  0.960  0.000  0.000     2.448     2.447
  48   1 H      0.055  0.945  0.000  0.000     2.262     2.352
  49   7 N     -0.184  1.243  3.941  0.000    24.978     7.423
  50   6 C      0.019  1.060  2.921  0.000    20.261     6.410
  51   6 C      0.271  1.045  2.684  0.000    22.414     7.753
  52   8 O     -0.509  1.747  4.762  0.000    23.987     6.567
  53   6 C     -0.155  1.049  3.106  0.000    23.552     6.919
  54   1 H      0.228  0.772  0.000  0.000     0.974     1.546
  55   1 H      0.062  0.938  0.000  0.000     2.172     2.305
  56   1 H      0.077  0.923  0.000  0.000     2.008     2.216
  57   1 H      0.088  0.912  0.000  0.000     1.895     2.153
  58   1 H      0.097  0.903  0.000  0.000     1.811     2.105
  59   7 N     -0.169  1.245  3.924  0.000    24.651     7.374
  60   6 C      0.003  1.066  2.931  0.000    20.535     6.453
  61   6 C      0.278  1.040  2.681  0.000    22.290     7.731
  62   8 O     -0.497  1.750  4.747  0.000    23.728     6.531
  63   6 C     -0.098  1.061  3.037  0.000    22.374     6.734
  64   6 C     -0.084  1.050  3.034  0.000    22.103     6.693
  65   6 C     -0.028  1.051  2.977  0.000    21.153     6.563
  66   7 N     -0.138  1.208  3.929  0.000    23.981     7.273
  67   6 C      0.229  1.018  2.752  0.000    23.187     7.884
  68   7 N     -0.239  1.221  4.018  0.000    26.250     7.609
  69   7 N     -0.258  1.236  4.022  0.000    26.709     7.676
  70   1 H      0.250  0.750  0.000  0.000     0.885     1.473
  71   1 H      0.094  0.906  0.000  0.000     1.843     2.123
  72   1 H      0.112  0.888  0.000  0.000     1.683     2.029
  73   1 H      0.072  0.928  0.000  0.000     2.065     2.247
  74   1 H      0.081  0.919  0.000  0.000     1.974     2.197
  75   1 H      0.056  0.944  0.000  0.000     2.252     2.347
  76   1 H      0.083  0.917  0.000  0.000     1.949     2.183
  77   1 H      0.082  0.918  0.000  0.000     1.959     2.189
  78   1 H      0.240  0.760  0.000  0.000     0.922     1.504
  79   1 H      0.232  0.768  0.000  0.000     0.958     1.534
  80   1 H      0.253  0.747  0.000  0.000     0.871     1.462
  81   1 H      0.256  0.744  0.000  0.000     0.860     1.452
  82   1 H      0.252  0.748  0.000  0.000     0.876     1.466
  83   7 N     -0.183  1.246  3.936  0.000    24.957     7.420
  84   6 C      0.019  1.060  2.921  0.000    20.256     6.408
  85   6 C      0.282  1.039  2.679  0.000    22.226     7.720
  86   8 O     -0.498  1.747  4.751  0.000    23.746     6.533
  87   6 C      0.078  1.035  2.887  0.000    19.487     6.323
  88   8 O     -0.457  1.704  4.753  0.000    21.981     6.329
  89   1 H      0.247  0.753  0.000  0.000     0.896     1.483
  90   1 H      0.078  0.922  0.000  0.000     2.001     2.212
  91   1 H      0.041  0.959  0.000  0.000     2.442     2.444
  92   1 H      0.025  0.975  0.000  0.000     2.657     2.549
  93   1 H      0.340  0.660  0.000  0.000     0.613     1.230
  94   7 N     -0.168  1.236  3.932  0.000    24.633     7.371
  95   6 C      0.035  1.054  2.911  0.000    19.988     6.366
  96   6 C      0.270  1.043  2.686  0.000    22.432     7.756
  97   8 O     -0.510  1.750  4.760  0.000    24.009     6.569
  98   6 C     -0.115  1.065  3.050  0.000    22.681     6.779
  99   6 C      0.294  1.033  2.673  0.000    22.011     7.682
 100   8 O     -0.495  1.753  4.741  0.000    23.670     6.523
 101   7 N     -0.290  1.264  4.026  0.000    27.476     7.785
 102   1 H      0.210  0.790  0.000  0.000     1.057     1.611
 103   1 H      0.066  0.934  0.000  0.000     2.129     2.282
 104   1 H      0.100  0.900  0.000  0.000     1.786     2.090
 105   1 H      0.081  0.919  0.000  0.000     1.969     2.195
 106   1 H      0.234  0.766  0.000  0.000     0.949     1.526
 107   1 H      0.235  0.765  0.000  0.000     0.945     1.522
 108   7 N     -0.181  1.255  3.926  0.000    24.924     7.415
 109   6 C      0.023  1.063  2.914  0.000    20.185     6.397
 110   6 C      0.286  1.041  2.674  0.000    22.156     7.708
 111   8 O     -0.510  1.744  4.766  0.000    24.001     6.568
 112   6 C     -0.091  1.060  3.032  0.000    22.233     6.711
 113   6 C      0.005  1.079  2.915  0.000    27.902     8.664
 114   6 C     -0.052  1.085  2.967  0.000    29.281     8.874
 115   6 C     -0.041  1.080  2.961  0.000    29.027     8.835
 116   6 C     -0.036  1.082  2.955  0.000    28.903     8.816
 117   6 C     -0.034  1.081  2.953  0.000    28.855     8.809
 118   6 C     -0.037  1.082  2.955  0.000    28.927     8.820
 119   1 H      0.251  0.749  0.000  0.000     0.879     1.469
 120   1 H      0.069  0.931  0.000  0.000     2.094     2.263
 121   1 H      0.081  0.919  0.000  0.000     1.964     2.191
 122   1 H      0.081  0.919  0.000  0.000     1.970     2.195
 123   1 H      0.056  0.944  0.000  0.000     2.245     2.343
 124   1 H      0.038  0.962  0.000  0.000     2.481     2.463
 125   1 H      0.045  0.955  0.000  0.000     2.383     2.414
 126   1 H      0.041  0.959  0.000  0.000     2.431     2.438
 127   1 H      0.044  0.956  0.000  0.000     2.391     2.418
 128   7 N     -0.172  1.242  3.930  0.000    24.723     7.385
 129   6 C      0.032  1.056  2.912  0.000    20.038     6.374
 130   6 C      0.277  1.043  2.680  0.000    22.307     7.734
 131   8 O     -0.498  1.743  4.755  0.000    23.742     6.533
 132   6 C     -0.110  1.062  3.048  0.000    22.598     6.766
 133   6 C      0.288  1.035  2.677  0.000    22.116     7.700
 134   8 O     -0.454  1.726  4.727  0.000    22.779     6.399
 135   7 N     -0.290  1.263  4.027  0.000    27.478     7.785
 136   1 H      0.237  0.763  0.000  0.000     0.934     1.514
 137   1 H      0.086  0.914  0.000  0.000     1.920     2.167
 138   1 H      0.083  0.917  0.000  0.000     1.946     2.182
 139   1 H      0.073  0.927  0.000  0.000     2.053     2.241
 140   1 H      0.245  0.755  0.000  0.000     0.903     1.489
 141   1 H      0.219  0.781  0.000  0.000     1.012     1.576
 142   7 N     -0.184  1.251  3.932  0.000    24.980     7.423
 143   6 C      0.022  1.064  2.915  0.000    20.212     6.401
 144   6 C      0.282  1.043  2.675  0.000    22.233     7.721
 145   8 O     -0.512  1.752  4.760  0.000    24.054     6.576
 146   6 C     -0.018  1.063  2.955  0.000    20.856     6.495
 147   6 C     -0.111  1.038  3.073  0.000    22.684     6.791
 148   6 C     -0.121  1.042  3.079  0.000    22.865     6.818
 149   1 H      0.224  0.776  0.000  0.000     0.991     1.559
 150   1 H      0.070  0.930  0.000  0.000     2.081     2.256
 151   1 H      0.057  0.943  0.000  0.000     2.231     2.336
 152   1 H      0.057  0.943  0.000  0.000     2.238     2.340
 153   1 H      0.030  0.970  0.000  0.000     2.591     2.517
 154   1 H      0.041  0.959  0.000  0.000     2.434     2.440
 155   1 H      0.055  0.945  0.000  0.000     2.258     2.350
 156   1 H      0.050  0.950  0.000  0.000     2.321     2.382
 157   1 H      0.053  0.947  0.000  0.000     2.284     2.363
 158   7 N     -0.199  1.259  3.940  0.000    25.334     7.475
 159   6 C      0.039  1.053  2.908  0.000    19.890     6.346
 160   6 C      0.286  1.038  2.676  0.000    22.150     7.708
 161   8 O     -0.500  1.759  4.741  0.000    23.784     6.539
 162   6 C     -0.022  1.071  2.951  0.000    20.963     6.518
 163  16 S     -0.321  1.952  4.306  0.062   154.999    20.954
 164   1 H      0.234  0.766  0.000  0.000     0.948     1.525
 165   1 H      0.050  0.950  0.000  0.000     2.314     2.379
 166   1 H      0.078  0.922  0.000  0.000     2.005     2.214
 167   1 H      0.094  0.906  0.000  0.000     1.841     2.122
 168   1 H      0.235  0.765  0.000  0.000     0.939     1.516
 169   7 N     -0.184  1.246  3.939  0.000    24.992     7.425
 170   6 C      0.022  1.059  2.919  0.000    20.209     6.401
 171   6 C      0.272  1.043  2.685  0.000    22.408     7.752
 172   8 O     -0.509  1.753  4.757  0.000    23.989     6.567
 173   6 C     -0.077  1.052  3.025  0.000    21.974     6.673
 174   6 C     -0.085  1.053  3.033  0.000    22.124     6.697
 175   6 C     -0.029  1.052  2.977  0.000    21.170     6.565
 176   7 N     -0.135  1.206  3.929  0.000    23.927     7.265
 177   6 C      0.231  1.019  2.750  0.000    23.150     7.878
 178   7 N     -0.239  1.225  4.014  0.000    26.245     7.609
 179   7 N     -0.262  1.234  4.027  0.000    26.785     7.686
 180   1 H      0.221  0.779  0.000  0.000     1.005     1.571
 181   1 H      0.079  0.921  0.000  0.000     1.985     2.204
 182   1 H      0.063  0.937  0.000  0.000     2.162     2.300
 183   1 H      0.073  0.927  0.000  0.000     2.052     2.240
 184   1 H      0.074  0.926  0.000  0.000     2.040     2.234
 185   1 H      0.094  0.906  0.000  0.000     1.844     2.124
 186   1 H      0.069  0.931  0.000  0.000     2.096     2.264
 187   1 H      0.107  0.893  0.000  0.000     1.727     2.055
 188   1 H      0.229  0.771  0.000  0.000     0.967     1.541
 189   1 H      0.240  0.760  0.000  0.000     0.925     1.507
 190   1 H      0.249  0.751  0.000  0.000     0.886     1.475
 191   1 H      0.244  0.756  0.000  0.000     0.907     1.492
 192   1 H      0.248  0.752  0.000  0.000     0.889     1.477
 193   7 N     -0.191  1.250  3.940  0.000    25.134     7.446
 194   6 C      0.033  1.057  2.910  0.000    20.026     6.372
 195   6 C      0.260  1.049  2.692  0.000    22.624     7.790
 196   8 O     -0.557  1.764  4.793  0.000    25.089     6.716
 197   6 C     -0.066  1.057  3.008  0.000    21.748     6.638
 198   6 C     -0.006  1.056  2.950  0.000    20.656     6.465
 199   6 C     -0.114  1.042  3.072  0.000    22.734     6.798
 200   6 C     -0.115  1.040  3.075  0.000    22.756     6.802
 201   1 H      0.213  0.787  0.000  0.000     1.043     1.600
 202   1 H      0.068  0.932  0.000  0.000     2.103     2.268
 203   1 H      0.043  0.957  0.000  0.000     2.409     2.427
 204   1 H      0.040  0.960  0.000  0.000     2.451     2.448
 205   1 H      0.033  0.967  0.000  0.000     2.540     2.492
 206   1 H      0.055  0.945  0.000  0.000     2.258     2.350
 207   1 H      0.035  0.965  0.000  0.000     2.519     2.482
 208   1 H      0.044  0.956  0.000  0.000     2.398     2.421
 209   1 H      0.058  0.942  0.000  0.000     2.221     2.331
 210   1 H      0.038  0.962  0.000  0.000     2.482     2.464
 211   1 H      0.031  0.969  0.000  0.000     2.566     2.505
 212   7 N     -0.082  1.237  3.844  0.000    22.828     7.096
 213   6 C      0.020  1.074  2.907  0.000    20.219     6.397
 214   6 C      0.375  1.023  2.602  0.000    20.654     7.437
 215   8 O     -0.644  1.772  4.872  0.000    27.230     6.996
 216   6 C     -0.059  1.052  3.007  0.000    21.608     6.614
 217   6 C     -0.058  1.050  3.008  0.000    21.592     6.611
 218   6 C      0.004  1.048  2.947  0.000    20.540     6.459
 219   8 O     -0.629  1.769  4.861  0.000    26.854     6.948
 220   1 H      0.018  0.982  0.000  0.000     2.771     2.603
 221   1 H      0.042  0.958  0.000  0.000     2.417     2.431
 222   1 H      0.046  0.954  0.000  0.000     2.367     2.406
 223   1 H      0.040  0.960  0.000  0.000     2.455     2.450
 224   1 H      0.063  0.937  0.000  0.000     2.167     2.302
 225   1 H      0.055  0.945  0.000  0.000     2.259     2.350
 226   1 H      0.067  0.933  0.000  0.000     2.122     2.278

 Mol. C6AA /au·bohr⁶  :     474721.307211
 Mol. C8AA /au·bohr⁸  :   10731360.985669
 Mol. α(0) /au        :       1032.747858

 
 Wiberg/Mayer (AO) data. WBOs > 0.1 written file <wbo>
 largest (>0.05) Wiberg bond orders for each atom
           total WBO             WBO to atom ...
     1  N   3.647    C    2 0.978    H    9 0.890    H    8 0.874    H    7 0.851
     2  C   3.942    C    5 0.981    N    1 0.978    H   10 0.940    C    3 0.933    O    4 0.058
     3  C   3.957    O    4 1.615    N   14 1.336    C    2 0.933
     4  O   2.023    C    3 1.615    N   14 0.200    C    2 0.058
     5  C   3.950    O    6 1.004    C    2 0.981    H   12 0.963    H   11 0.962
     6  O   1.951    C    5 1.004    H   13 0.867
     7  H   0.904    N    1 0.851
     8  H   0.906    N    1 0.874
     9  H   0.901    N    1 0.890
    10  H   0.978    C    2 0.940
    11  H   0.995    C    5 0.962
    12  H   0.993    C    5 0.963
    13  H   0.881    O    6 0.867
    14  N   3.504    C    3 1.336    C   15 0.977    H   22 0.912    O    4 0.200
    15  C   3.960    N   14 0.977    C   18 0.971    H   23 0.941    C   16 0.929    O   17 0.051
    16  C   3.944    O   17 1.644    N   33 1.286    C   15 0.929
    17  O   2.018    C   16 1.644    N   33 0.194    C   15 0.051
    18  C   3.989    C   20 1.007    C   19 0.992    C   15 0.971    H   24 0.961
    19  C   3.993    C   21 1.021    C   18 0.992    H   26 0.974    H   25 0.972
    20  C   3.992    C   18 1.007    H   29 0.983    H   28 0.983    H   27 0.983
    21  C   3.993    C   19 1.021    H   30 0.985    H   32 0.985    H   31 0.982
    22  H   0.949    N   14 0.912
    23  H   0.989    C   15 0.941
    24  H   0.997    C   18 0.961
    25  H   0.997    C   19 0.972
    26  H   0.997    C   19 0.974
    27  H   0.997    C   20 0.983
    28  H   0.997    C   20 0.983
    29  H   0.999    C   20 0.983
    30  H   0.998    C   21 0.985
    31  H   0.997    C   21 0.982
    32  H   0.998    C   21 0.985
    33  N   3.450    C   16 1.286    C   34 0.978    H   40 0.910    O   17 0.194
    34  C   3.967    N   33 0.978    C   37 0.966    H   41 0.954    C   35 0.935    O   36 0.051
    35  C   3.947    O   36 1.645    N   49 1.285    C   34 0.935
    36  O   1.958    C   35 1.645    N   49 0.194    C   34 0.051
    37  C   3.988    C   38 1.009    C   39 1.008    C   34 0.966    H   42 0.960
    38  C   3.993    C   37 1.009    H   45 0.986    H   43 0.983    H   44 0.983
    39  C   3.992    C   37 1.008    H   47 0.986    H   46 0.981    H   48 0.977
    40  H   0.953    N   33 0.910
    41  H   0.997    C   34 0.954
    42  H   0.994    C   37 0.960
    43  H   0.996    C   38 0.983
    44  H   0.999    C   38 0.983
    45  H   0.999    C   38 0.986
    46  H   0.996    C   39 0.981
    47  H   0.998    C   39 0.986
    48  H   0.997    C   39 0.977
    49  N   3.450    C   35 1.285    C   50 0.976    H   54 0.912    O   36 0.194
    50  C   3.962    C   53 0.993    N   49 0.976    H   55 0.957    C   51 0.932
    51  C   3.943    O   52 1.593    N   59 1.332    C   50 0.932
    52  O   1.970    C   51 1.593    N   59 0.196
    53  C   3.974    C   50 0.993    H   56 0.980    H   57 0.977    H   58 0.975
    54  H   0.948    N   49 0.912
    55  H   0.996    C   50 0.957
    56  H   0.993    C   53 0.980
    57  H   0.992    C   53 0.977
    58  H   0.991    C   53 0.975
    59  N   3.477    C   51 1.332    C   60 0.979    H   70 0.878    O   52 0.196
    60  C   3.962    C   63 0.980    N   59 0.979    H   71 0.942    C   61 0.935
    61  C   3.937    O   62 1.608    N   83 1.309    C   60 0.935
    62  O   1.974    C   61 1.608    N   83 0.194
    63  C   3.979    C   64 1.007    C   60 0.980    H   73 0.969    H   72 0.960
    64  C   3.989    C   63 1.007    C   65 1.005    H   75 0.970    H   74 0.969
    65  C   3.959    C   64 1.005    N   66 0.988    H   76 0.958    H   77 0.958
    66  N   3.468    C   67 1.314    C   65 0.988    H   78 0.908    N   68 0.102    N   69 0.099
    67  C   3.978    N   68 1.326    N   66 1.314    N   69 1.306
    68  N   3.411    C   67 1.326    H   79 0.921    H   80 0.916    N   66 0.102    N   69 0.101
    69  N   3.376    C   67 1.306    H   82 0.917    H   81 0.915    N   68 0.101    N   66 0.099
    70  H   0.937    N   59 0.878
    71  H   0.991    C   60 0.942
    72  H   0.987    C   63 0.960
    73  H   0.995    C   63 0.969
    74  H   0.993    C   64 0.969
    75  H   0.996    C   64 0.970
    76  H   0.993    C   65 0.958
    77  H   0.993    C   65 0.958
    78  H   0.942    N   66 0.908
    79  H   0.946    N   68 0.921
    80  H   0.936    N   68 0.916
    81  H   0.934    N   69 0.915
    82  H   0.936    N   69 0.917
    83  N   3.468    C   61 1.309    C   84 0.991    H   89 0.880    O   62 0.194
    84  C   3.977    N   83 0.991    C   87 0.979    H   90 0.950    C   85 0.933    O   86 0.052
    85  C   3.947    O   86 1.634    N   94 1.293    C   84 0.933
    86  O   1.948    C   85 1.634    N   94 0.192    C   84 0.052
    87  C   3.965    O   88 1.007    C   84 0.979    H   92 0.971    H   91 0.963
    88  O   1.938    C   87 1.007    H   93 0.871
    89  H   0.939    N   83 0.880
    90  H   0.994    C   84 0.950
    91  H   0.998    C   87 0.963
    92  H   0.999    C   87 0.971
    93  H   0.885    O   88 0.871
    94  N   3.470    C   85 1.293    C   95 0.983    H  102 0.917    O   86 0.192
    95  C   3.969    C   98 0.989    N   94 0.983    H  103 0.954    C   96 0.928
    96  C   3.950    O   97 1.585    N  108 1.350    C   95 0.928
    97  O   1.950    C   96 1.585    N  108 0.200
    98  C   3.990    C   95 0.989    H  105 0.961    C   99 0.959    H  104 0.948    O  100 0.058
    99  C   3.947    O  100 1.654    N  101 1.307    C   98 0.959
   100  O   1.959    C   99 1.654    N  101 0.201    C   98 0.058
   101  N   3.392    C   99 1.307    H  107 0.927    H  106 0.924    O  100 0.201
   102  H   0.956    N   94 0.917
   103  H   0.995    C   95 0.954
   104  H   0.990    C   98 0.948
   105  H   0.993    C   98 0.961
   106  H   0.944    N  101 0.924
   107  H   0.945    N  101 0.927
   108  N   3.485    C   96 1.350    C  109 0.972    H  119 0.863    O   97 0.200
   109  C   3.959    N  108 0.972    C  112 0.962    H  120 0.952    C  110 0.941
   110  C   3.942    O  111 1.582    N  128 1.323    C  109 0.941
   111  O   1.948    C  110 1.582    N  128 0.186
   112  C   3.978    C  113 1.004    H  121 0.964    C  109 0.962    H  122 0.958
   113  C   3.986    C  114 1.414    C  115 1.414    C  112 1.004    C  118 0.110
   114  C   3.988    C  116 1.442    C  113 1.414    H  123 0.963    C  117 0.111
   115  C   3.991    C  117 1.446    C  113 1.414    H  124 0.969    C  116 0.112
   116  C   3.991    C  114 1.442    C  118 1.440    H  125 0.970    C  115 0.112
   117  C   3.992    C  115 1.446    C  118 1.438    H  126 0.970    C  114 0.111
   118  C   3.991    C  116 1.440    C  117 1.438    H  127 0.970    C  113 0.110
   119  H   0.937    N  108 0.863
   120  H   0.995    C  109 0.952
   121  H   0.993    C  112 0.964
   122  H   0.993    C  112 0.958
   123  H   0.997    C  114 0.963
   124  H   0.999    C  115 0.969
   125  H   0.998    C  116 0.970
   126  H   0.998    C  117 0.970
   127  H   0.997    C  118 0.970
   128  N   3.481    C  110 1.323    C  129 0.986    H  136 0.893    O  111 0.186
   129  C   3.970    N  128 0.986    C  132 0.983    H  137 0.946    C  130 0.938
   130  C   3.943    O  131 1.603    N  142 1.307    C  129 0.938
   131  O   1.951    C  130 1.603    N  142 0.188
   132  C   3.988    C  129 0.983    H  139 0.961    C  133 0.959    H  138 0.951    O  134 0.057
   133  C   3.956    O  134 1.663    N  135 1.305    C  132 0.959
   134  O   1.976    C  133 1.663    N  135 0.203    C  132 0.057
   135  N   3.392    C  133 1.305    H  141 0.934    H  140 0.919    O  134 0.203
   136  H   0.943    N  128 0.893
   137  H   0.992    C  129 0.946
   138  H   0.993    C  132 0.951
   139  H   0.994    C  132 0.961
   140  H   0.939    N  135 0.919
   141  H   0.952    N  135 0.934
   142  N   3.467    C  130 1.307    C  143 0.985    H  149 0.887    O  131 0.188
   143  C   3.966    N  142 0.985    C  146 0.961    H  150 0.945    C  144 0.942
   144  C   3.942    O  145 1.595    N  158 1.308    C  143 0.942
   145  O   1.945    C  144 1.595    N  158 0.188
   146  C   3.987    C  147 1.010    C  148 1.007    H  151 0.963    C  143 0.961
   147  C   3.994    C  146 1.010    H  153 0.985    H  154 0.985    H  152 0.984
   148  C   3.992    C  146 1.007    H  156 0.985    H  155 0.983    H  157 0.981
   149  H   0.950    N  142 0.887
   150  H   0.994    C  143 0.945
   151  H   0.997    C  146 0.963
   152  H   0.996    C  147 0.984
   153  H   0.999    C  147 0.985
   154  H   0.998    C  147 0.985
   155  H   0.996    C  148 0.983
   156  H   0.997    C  148 0.985
   157  H   0.997    C  148 0.981
   158  N   3.458    C  144 1.308    C  159 0.980    H  164 0.877    O  145 0.188
   159  C   3.968    C  162 0.986    N  158 0.980    H  165 0.955    C  160 0.934    O  161 0.051
   160  C   3.947    O  161 1.624    N  169 1.297    C  159 0.934
   161  O   1.956    C  160 1.624    N  169 0.191    C  159 0.051
   162  C   3.969    S  163 0.992    C  159 0.986    H  166 0.972    H  167 0.965
   163  S   1.999    C  162 0.992    H  168 0.933
   164  H   0.945    N  158 0.877
   165  H   0.997    C  159 0.955
   166  H   0.994    C  162 0.972
   167  H   0.991    C  162 0.965
   168  H   0.945    S  163 0.933
   169  N   3.464    C  160 1.297    C  170 0.989    H  180 0.888    O  161 0.191
   170  C   3.961    N  169 0.989    C  173 0.977    H  181 0.936    C  171 0.930    O  172 0.056
   171  C   3.940    O  172 1.620    N  193 1.305    C  170 0.930
   172  O   1.936    C  171 1.620    N  193 0.193    C  170 0.056
   173  C   3.981    C  174 1.004    C  170 0.977    H  182 0.972    H  183 0.969
   174  C   3.986    C  175 1.010    C  173 1.004    H  184 0.970    H  185 0.968
   175  C   3.954    C  174 1.010    N  176 0.981    H  187 0.956    H  186 0.956
   176  N   3.473    C  177 1.323    C  175 0.981    H  188 0.913    N  178 0.102    N  179 0.100
   177  C   3.978    N  178 1.323    N  176 1.323    N  179 1.301
   178  N   3.401    C  177 1.323    H  190 0.918    H  189 0.914    N  176 0.102    N  179 0.098
   179  N   3.376    C  177 1.301    H  191 0.921    H  192 0.919    N  176 0.100    N  178 0.098
   180  H   0.951    N  169 0.888
   181  H   0.993    C  170 0.936
   182  H   0.996    C  173 0.972
   183  H   0.994    C  173 0.969
   184  H   0.994    C  174 0.970
   185  H   0.991    C  174 0.968
   186  H   0.995    C  175 0.956
   187  H   0.989    C  175 0.956
   188  H   0.947    N  176 0.913
   189  H   0.943    N  178 0.914
   190  H   0.938    N  178 0.918
   191  H   0.940    N  179 0.921
   192  H   0.938    N  179 0.919
   193  N   3.475    C  171 1.305    C  194 0.989    H  201 0.891    O  172 0.193
   194  C   3.966    N  193 0.989    C  197 0.972    H  202 0.949    C  195 0.931
   195  C   3.945    O  196 1.565    N  212 1.330    C  194 0.931
   196  O   1.885    C  195 1.565    N  212 0.190
   197  C   3.987    C  198 0.991    H  204 0.973    C  194 0.972    H  203 0.970
   198  C   3.993    C  200 1.010    C  199 1.007    C  197 0.991    H  205 0.967
   199  C   3.994    C  198 1.007    H  208 0.986    H  206 0.985    H  207 0.983
   200  C   3.995    C  198 1.010    H  210 0.987    H  209 0.984    H  211 0.984
   201  H   0.955    N  193 0.891
   202  H   0.995    C  194 0.949
   203  H   0.998    C  197 0.970
   204  H   0.998    C  197 0.973
   205  H   0.999    C  198 0.967
   206  H   0.996    C  199 0.985
   207  H   0.999    C  199 0.983
   208  H   0.998    C  199 0.986
   209  H   0.996    C  200 0.984
   210  H   0.999    C  200 0.987
   211  H   0.999    C  200 0.984
   212  N   3.542    C  195 1.330    C  218 0.974    C  213 0.973    O  196 0.190
   213  C   3.955    C  216 0.991    N  212 0.973    H  220 0.958    C  214 0.871    O  219 0.054    O  215 0.052
   214  C   3.934    O  219 1.519    O  215 1.499    C  213 0.871
   215  O   1.799    C  214 1.499    O  219 0.218    C  213 0.052
   216  C   3.995    C  217 1.005    C  213 0.991    H  222 0.977    H  221 0.977
   217  C   3.994    C  216 1.005    C  218 1.000    H  223 0.982    H  224 0.979
   218  C   3.964    C  217 1.000    N  212 0.974    H  225 0.963    H  226 0.962
   219  O   1.818    C  214 1.519    O  215 0.218    C  213 0.054
   220  H   1.000    C  213 0.958
   221  H   0.998    C  216 0.977
   222  H   0.998    C  216 0.977
   223  H   0.998    C  217 0.982
   224  H   0.996    C  217 0.979
   225  H   0.997    C  218 0.963
   226  H   0.995    C  218 0.962
 MOs/occ written to file <molden.input>
 
molecular dipole:
                 x           y           z       tot (Debye)
 q only:      139.616      50.482      91.235
   full:      141.222      52.400      89.681     445.592
molecular quadrupole (traceless):
                xx          xy          yy          xz          yz          zz
 q only:     5693.376    5824.702   -4729.853    8278.630    3606.952    -963.523
  q+dip:     5838.747    6022.463   -4647.429    8251.412    3625.629   -1191.318
   full:     5837.906    6022.322   -4647.664    8252.650    3624.588   -1190.243
speedup  4.33
cpu  time for grad    7.80 s
wall time for grad    1.80 s

SCC energy    :    -353.6479533
rep           :       4.1242555
ES            :       1.4076807
AES           :      -0.0930560
AXC           :       0.1095985
disp          :      -0.2943952
XB            :       0.0000000
fix           :       0.0000000
Gborn         :       0.0000000
Gsasa         :       0.0000000
Ghb           :       0.0000000
Gshift        :       0.0000000
Gsolv         :      -0.5996992     -376.32
Etot ala COSMO:    -353.6479533
grad norm     :       0.0055616
total E       :    -349.5008135
atomizationE  :      63.1314220    39615.57
(atE without considering molecular charge,
 total energy contains solvation terms)
H-L gap (eV)  :          2.4638

------------------------------------------------------------------------
 * finished run on 2019/03/05 at 19:41:27.306     
------------------------------------------------------------------------
 total:
 * wall-time:     0 d,  0 h,  0 min,  1.958 sec
 *  cpu-time:     0 d,  0 h,  0 min,  8.575 sec
 * ratio c/w:     4.381 speedup
 SCF:
 * wall-time:     0 d,  0 h,  0 min,  1.878 sec
 *  cpu-time:     0 d,  0 h,  0 min,  8.418 sec
 * ratio c/w:     4.483 speedup

